LAMMPS data file via write_data, version 23 Jun 2022, timestep = 2080

12009 atoms
3 atom types

0 100.8 xlo xhi
0 101.845 ylo yhi
-80 80 zlo zhi

Masses

1 12.0107
2 12.0107
3 1.00784

Atoms # atomic

10466 3 22.577682115666207 12.116687349055903 7.461048068521945 0 0 0
2 1 0.7088102487907714 1.189905600735214 3.435087792470208 0 0 0
3 1 2.031385007693983 1.1858228090945295 4.211147684485771 0 0 0
4 1 2.7030676757542356 0.027447579810617264 3.510611849039941 0 0 0
10465 3 24.51711656881933 10.899012537159912 7.381014152420254 0 0 0
6 1 0.7334015044460881 3.6598386896304342 3.5006677932069437 0 0 0
7 1 2.064994016111048 3.648414001926676 4.214451199032295 0 0 0
8 1 2.768478893988959 2.4142475531504375 3.738410803202277 0 0 0
9 1 0.013347959713859103 4.881427603579904 3.849298759862958 0 0 0
10 1 0.6877455449008149 6.0478145591164605 3.80681404256215 0 0 0
11 1 2.0378840053977023 6.048716037711319 3.832689833755692 0 0 0
12 1 2.747024160825329 4.811025058375356 3.503249989842049 0 0 0
4886 2 23.09773691809219 8.496292888382428 5.792118216141812 0 0 0
170 1 4.881969686467978 1.2375317495831597 3.66021269612424 0 0 0
171 1 6.268364326925876 1.1808374939086221 4.24128588642947 0 0 0
173 1 4.160360124132347 2.414554106996421 4.2479924424363755 0 0 0
174 1 4.895660825872006 3.5901026300847887 3.6641937597276084 0 0 0
175 1 6.282947553641184 3.6398646423887637 4.251537045534384 0 0 0
177 1 4.166123441793577 4.843905550996496 3.8744545055197075 0 0 0
178 1 4.894392889220371 6.0953834244465375 3.6736099278559218 0 0 0
179 1 6.2834639863857165 6.048760497379841 4.255763818876072 0 0 0
8065 3 0.9063639079084544 1.2694404530669177 2.365434277747856 0 0 0
8066 3 2.658066159923446 0.1580247445250109 2.430047213165597 0 0 0
8067 3 0.8853985654327812 3.669542101966726 2.4227451616736992 0 0 0
8068 3 2.800392347551128 2.4148667878491676 2.6518678455490634 0 0 0
8069 3 2.7187085556254087 4.668610852393888 2.416890059278957 0 0 0
8141 3 4.964264100399171 1.3724253252796013 2.5824830984410525 0 0 0
8143 3 4.971757842923047 3.4649999988819777 2.585797125585889 0 0 0
8145 3 4.970228463818499 6.259627172218638 2.5997247813277222 0 0 0
172 1 6.929110712115955 0.03719393601456027 3.5263283805469756 0 0 0
176 1 6.985693932229748 2.419740507897605 3.756272742363155 0 0 0
180 1 6.914014762452658 4.846877546060942 3.628238862807048 0 0 0
1017 1 25.18906664250045 4.8689528586987585 3.722800966679462 0 0 0
338 1 9.09791812270083 1.2380847265151294 3.696313304474431 0 0 0
339 1 10.495748400057062 1.1767867755335844 4.282972153175877 0 0 0
340 1 11.140084603280574 0.03900657278814952 3.5415401064011856 0 0 0
341 1 8.37535114794606 2.4248333097034056 4.270477672318394 0 0 0
342 1 9.100907604628343 3.593294002620697 3.6518438960346695 0 0 0
343 1 10.476552363767947 3.6433510955599187 4.2660560685272895 0 0 0
344 1 11.139098329736543 2.4187269111677443 3.6968967407134534 0 0 0
345 1 8.369554962035172 4.858511719593996 3.729008209289628 0 0 0
346 1 9.109186306902973 6.11283658971181 3.626036384131952 0 0 0
347 1 10.471273486963282 6.050185335544364 4.251508450069429 0 0 0
348 1 11.174842715329756 4.847239474532586 3.7445257666840726 0 0 0
673 1 16.774645528134727 0.0017572616248766725 3.8366747573108824 0 0 0
509 1 12.591219642774638 2.435105728699904 3.8615315839600433 0 0 0
513 1 12.59069242088784 4.8402627366405815 4.229373623830804 0 0 0
8142 3 6.844874884160634 0.1997057032748901 2.4511655686743197 0 0 0
8144 3 7.00699386428334 2.4321815914931904 2.669011328361428 0 0 0
8146 3 6.685155967300733 4.848702852367961 2.5633473495756967 0 0 0
8224 3 9.160048986279952 1.3545416879799022 2.6152185941864565 0 0 0
8225 3 11.024521355624803 0.20585374944665982 2.4698979399452194 0 0 0
8226 3 9.182599524797386 3.450743759399586 2.5748629691758422 0 0 0
8227 3 11.011111771233486 2.41947037513925 2.6156069816050964 0 0 0
8228 3 9.222741872432204 6.309533917291023 2.560855390366546 0 0 0
8229 3 11.156506037928924 4.845960498623778 2.6573769938498404 0 0 0
506 1 13.328431671724811 1.2180312464622143 3.534694622445476 0 0 0
507 1 14.66584122344381 1.2040820634250473 4.239320225992724 0 0 0
508 1 15.345645562901826 0.03686664247217662 3.5304170012908105 0 0 0
510 1 13.262040265949857 3.691487333224565 3.5358992738002906 0 0 0
511 1 14.683836074979569 3.6460904568401378 3.879385812979973 0 0 0
512 1 15.410138085309603 2.393817461014098 3.668961178186805 0 0 0
514 1 13.288976859829281 6.069525657161019 3.7361294984674163 0 0 0
515 1 14.686281912655522 6.064398858378585 4.24438742520309 0 0 0
516 1 15.420169319737258 4.889059037342855 3.659767253751854 0 0 0
4723 2 20.31602463153636 10.87698394470056 6.50917043483577 0 0 0
674 1 17.510084772696008 1.257105216288926 3.6664911084911567 0 0 0
675 1 18.88842600949638 1.1889933537044852 4.249530932417781 0 0 0
677 1 16.78017077048172 2.425796238965163 4.257835463831066 0 0 0
678 1 17.48948470446153 3.643697412598893 3.7494033139336547 0 0 0
679 1 18.891473838458335 3.641026219400138 4.259481273856483 0 0 0
681 1 16.78885198324238 4.850934098803245 4.255811742581515 0 0 0
682 1 17.504871575839164 6.066638623880946 3.748864420437336 0 0 0
683 1 18.89829746246495 6.067259987854086 4.261998408703962 0 0 0
8308 3 13.488549596688589 1.2646318176505236 2.456832702942868 0 0 0
8309 3 15.277544298660478 0.16245837222271778 2.449686741931107 0 0 0
8310 3 13.185465302608149 3.8404033568366227 2.45865233572935 0 0 0
8311 3 15.508566873535187 2.2802062146798847 2.5908984888559257 0 0 0
8312 3 13.290723874185218 6.086684423969332 2.649040124519221 0 0 0
8313 3 15.508156716299041 5.006045437168875 2.5813269624548223 0 0 0
8390 3 17.599414510116844 1.4243914630907843 2.593467926531125 0 0 0
8392 3 17.492091489501515 3.6537924690575436 2.6622307663954112 0 0 0
8394 3 17.5222527450495 6.064643217048868 2.661686154635008 0 0 0
676 1 19.546053944325635 0.04823644274009072 3.528766162015836 0 0 0
680 1 19.59284459825028 2.4288457793561453 3.753752704817624 0 0 0
684 1 19.594618052378813 4.8547941844140565 3.747445114931591 0 0 0
4708 2 21.013561370311912 0.012474310662166572 6.209171170709503 0 0 0
842 1 21.70760232066365 1.2639579553545341 3.6630138944764514 0 0 0
843 1 23.088732713605623 1.1972191714601494 4.245156675307216 0 0 0
844 1 23.74742482929071 0.05284215254338336 3.5320879066547497 0 0 0
845 1 20.9887469244866 2.4232243775720437 4.263439971448564 0 0 0
846 1 21.68740889582655 3.645637536390214 3.753863470303814 0 0 0
847 1 23.10549407602777 3.651544297064337 4.254529342705439 0 0 0
848 1 23.79474950992749 2.436994394718127 3.7509598354902414 0 0 0
849 1 20.99401597515313 4.86023492471603 4.262839958217156 0 0 0
850 1 21.690297375302418 6.0778875627300355 3.7522396723041616 0 0 0
851 1 23.10700616684547 6.0701776128127145 4.254482343662661 0 0 0
852 1 23.732424559477 4.861849938616061 3.6254532930146204 0 0 0
8391 3 19.451625844947007 0.2097265099042685 2.4544773172385836 0 0 0
8393 3 19.60397327527457 2.4467851137350705 2.6667010095807187 0 0 0
8395 3 19.595508182777056 4.854892764832038 2.6603041332317487 0 0 0
8472 3 21.788038839329968 1.4342632617980822 2.589994273842247 0 0 0
8473 3 23.656835889549164 0.21366300850629305 2.4571624378283707 0 0 0
8474 3 21.67037640612608 3.648839508398494 2.666891127022053 0 0 0
8475 3 23.80383052974714 2.4529316329635 2.6637414224846614 0 0 0
8476 3 21.673782899217805 6.087872434451262 2.665187702015845 0 0 0
8477 3 23.50096347050876 4.861580008895968 2.561295381775251 0 0 0
13 1 0.016371037735743926 7.2138634083422595 3.855507228986132 0 0 0
14 1 0.7460271997564106 8.430950178254083 3.5138415518975727 0 0 0
15 1 2.057512836752363 8.456762731158962 4.253212395659739 0 0 0
16 1 2.796579163948824 7.287519146452718 3.6579733117411704 0 0 0
4885 2 22.391286219242954 7.2846787712983865 6.303535918703657 0 0 0
18 1 0.7416867898826487 10.884217411530651 3.499096375331964 0 0 0
19 1 2.0636687181426456 10.899458402063358 4.234705408373395 0 0 0
20 1 2.7854575482492234 9.68172857094026 3.755887490647867 0 0 0
4728 2 20.99739923343797 12.125006501814317 6.162350681582427 0 0 0
24 1 2.7943785193364867 12.11417106097323 3.7437866841117025 0 0 0
181 1 4.158460705625759 7.241857967093735 4.274929508560639 0 0 0
182 1 4.879087415507534 8.473871447807197 3.7637761179642117 0 0 0
183 1 6.283070797187563 8.477636412370709 4.264473324214708 0 0 0
185 1 4.179040165196438 9.685304962173106 4.2711094203498 0 0 0
186 1 4.880825104902248 10.89407109236644 3.7515542824331924 0 0 0
187 1 6.284054799035433 10.905173337347852 4.2592174827564575 0 0 0
189 1 4.184895369533501 12.127138278214893 4.253654837242791 0 0 0
8070 3 0.9367670055100717 8.409514596835633 2.4420377815651353 0 0 0
8071 3 2.9202641521360206 7.44806241552574 2.5813122137134545 0 0 0
8072 3 0.9369329387207308 10.889868904880991 2.426831072220688 0 0 0
8073 3 2.8127200929549137 9.683661042416162 2.66917529039179 0 0 0
8075 3 2.8185627605670383 12.11410635676059 2.6568555739780897 0 0 0
8147 3 4.887418046754159 8.486987127793823 2.6765776216908206 0 0 0
8149 3 4.879443957311077 10.873500677878573 2.6644424081710603 0 0 0
184 1 6.985785906612151 7.267614321233528 3.7510709059186214 0 0 0
188 1 6.9832949426074835 9.691918982782491 3.74689489554998 0 0 0
192 1 6.99327787729754 12.117950773378931 3.748847271123573 0 0 0
349 1 8.381490961117748 7.26077117703661 4.254915905960277 0 0 0
350 1 9.084211483745271 8.489712542939753 3.7479831649536792 0 0 0
351 1 10.487174515709512 8.484606932541752 4.260130788029151 0 0 0
352 1 11.188855184372496 7.269685688019532 3.7480305798905875 0 0 0
353 1 8.384962881593252 9.699170626746252 4.2585761629750625 0 0 0
354 1 9.0891011695831 10.911088585421636 3.745582278046183 0 0 0
355 1 10.490386204721752 10.914980519923425 4.259892160041373 0 0 0
356 1 11.18764382474572 9.699600427036811 3.7529875687662204 0 0 0
357 1 8.39045752760927 12.121220257559925 4.262573779945999 0 0 0
360 1 11.189373799441043 12.131792040025235 3.7511095415999756 0 0 0
517 1 12.597944954227644 7.278817091939994 4.251150144417252 0 0 0
521 1 12.610425920942758 9.701194025416667 4.261116125946548 0 0 0
525 1 12.593503748818858 12.146259650700381 4.256803936830272 0 0 0
8148 3 6.991348255075485 7.275128761583244 2.663693339751116 0 0 0
8150 3 6.982204257021817 9.68937203681757 2.659602854699378 0 0 0
8152 3 7.00887933368032 12.109478303652512 2.6616364334625455 0 0 0
8230 3 9.08456583586935 8.5057310713209 2.6607825695634695 0 0 0
8231 3 11.193369729197812 7.272797980989386 2.660872611722551 0 0 0
8232 3 9.089470038327441 10.911951712386308 2.6582799741444676 0 0 0
8233 3 11.172968056635295 9.699071181437267 2.6656304874052563 0 0 0
8235 3 11.179324416114273 12.135879750423289 2.6637866904177754 0 0 0
518 1 13.24810887613286 8.48972510718382 3.660915725746328 0 0 0
519 1 14.692365953370242 8.490580340339399 3.8770771898987486 0 0 0
520 1 15.414690795138135 7.23981322841424 3.6572904770673755 0 0 0
522 1 13.244616371602252 10.9164454315158 3.6694421313406855 0 0 0
523 1 14.691112306753636 10.920363706006157 3.8862432676082506 0 0 0
524 1 15.430545732178444 9.704899580187922 3.5354633165242437 0 0 0
528 1 15.407344403273187 12.182377171565884 3.676028545988829 0 0 0
685 1 16.788352581478552 7.284482482223756 4.250580584597037 0 0 0
686 1 17.496031174326447 8.492027940432225 3.7397839104243484 0 0 0
687 1 18.891046826500624 8.50418003110762 4.25374677749343 0 0 0
689 1 16.77940451914164 9.705325581119595 4.229896869489851 0 0 0
690 1 17.442420154575657 10.922168290059789 3.6532801931294867 0 0 0
691 1 18.888457004600227 10.924788698558695 3.8734263485977083 0 0 0
693 1 16.791621608627253 12.127256651487496 4.252288090321812 0 0 0
8314 3 13.078071792732048 8.493956016675407 2.5853357556182344 0 0 0
8315 3 15.500452560758669 7.1201084462973 2.5789327868494087 0 0 0
8316 3 13.072903057739355 10.902248954689673 2.5937225953443455 0 0 0
8317 3 15.574773772693067 9.693120587151137 2.4552977165012986 0 0 0
8319 3 15.49150377404951 12.307227429833238 2.5975831315659716 0 0 0
8396 3 17.5098126676968 8.480407355385 2.6525532281439514 0 0 0
8398 3 17.296593203646108 10.941354095121335 2.5751331650600204 0 0 0
688 1 19.594270188748737 7.27963919880561 3.7503133919108715 0 0 0
692 1 19.613146852111147 9.673536416926797 3.6620527884034484 0 0 0
696 1 19.571094014953452 12.172537051416883 3.528748889082229 0 0 0
853 1 20.992880668960805 7.2870701581422015 4.267366224157618 0 0 0
854 1 21.69539709252206 8.49718849489348 3.7579457780512224 0 0 0
855 1 23.097222338469212 8.497864946189184 4.2631619013982975 0 0 0
856 1 23.795281146694233 7.285726045698173 3.746881175775421 0 0 0
857 1 20.98259070828854 9.729279310345902 4.262845943364436 0 0 0
858 1 21.716971788750012 10.884849013830822 3.663619831156976 0 0 0
859 1 23.091990822833058 10.927254506376537 4.254161226413813 0 0 0
860 1 23.802573928738763 9.708326546765912 3.7499089300666473 0 0 0
861 1 20.99176712479395 12.133522259809492 3.8781572650884937 0 0 0
864 1 23.800461756442207 12.131760475560819 3.742022397185451 0 0 0
8397 3 19.597625306538387 7.267973124924278 2.6631819801601995 0 0 0
8399 3 19.703437064363037 9.524442253408733 2.5870133362014753 0 0 0
8401 3 19.492143685818803 12.314640080048273 2.4510500116244693 0 0 0
8478 3 21.702271674323754 8.482966181058933 2.6707319557709486 0 0 0
8479 3 23.792377148150074 7.289846962929404 2.6595952619118064 0 0 0
8480 3 21.801728618273806 10.73381734731093 2.5885028037082036 0 0 0
8481 3 23.811805604893078 9.701215733006848 2.662773345666568 0 0 0
8483 3 23.798844573456186 12.127972132454422 2.654796600908244 0 0 0
4033 2 1.402770327776264 0.05244662011583264 6.591778965395403 0 0 0
4034 2 2.033255402663172 1.1711719655688955 5.768868294106127 0 0 0
4035 2 3.445637739679655 1.2425070365502178 6.341692561335804 0 0 0
4724 2 20.98643591641614 9.721810290722246 5.813160840760866 0 0 0
4037 2 1.3937654551799596 2.410946895013126 6.3611421056061435 0 0 0
4038 2 2.0452757778616224 3.6632921121615523 5.783078629532193 0 0 0
4039 2 3.4551596367788644 3.6063955158156014 6.357310874827115 0 0 0
4040 2 4.16690652618212 2.4225387083603467 5.761885402766077 0 0 0
4041 2 1.4030278111964527 4.798684763978222 6.571137380265473 0 0 0
4042 2 2.079579691919085 6.06801908848155 6.26759618468157 0 0 0
4043 2 3.5200942202725205 6.102587356869921 6.548129438204036 0 0 0
4044 2 4.187400323970856 4.858589575394695 6.167566666107147 0 0 0
4201 2 5.615777411041632 0.04297842134636826 6.4983666491926275 0 0 0
4202 2 6.277689973709808 1.1840867182199883 5.786428326236941 0 0 0
4205 2 5.561105474684011 2.4208603063662286 6.27379827355518 0 0 0
4206 2 6.279248643172534 3.6402878593697876 5.7840808453932935 0 0 0
4209 2 5.634184181320843 4.84136759543117 6.382177092809918 0 0 0
4210 2 6.284647534543563 6.0476354236940235 5.796972754170539 0 0 0
10464 3 22.41680158285701 9.702983578284128 7.393113422820963 0 0 0
10463 3 24.505384200129463 8.51857590536993 7.386474599264084 0 0 0
10462 3 22.377044149481854 7.2923307415776 7.390773768555063 0 0 0
10039 3 1.5854913053325832 0.23454695444911694 7.651297633784898 0 0 0
10040 3 3.3984519225233503 1.3695640470833423 7.4218106619986575 0 0 0
10041 3 1.5549768931306267 2.417114994371321 7.437202177561941 0 0 0
10042 3 3.406314586915367 3.484773469033074 7.437293701245269 0 0 0
10043 3 1.509124306118828 4.60971447479438 7.6452116458929185 0 0 0
10044 3 3.6509594633000897 6.241588638914095 7.628118593363326 0 0 0
10122 3 5.698406384979814 0.20262760563868146 7.57399120388795 0 0 0
10124 3 5.537185214268477 2.43028049515274 7.361001358240363 0 0 0
10126 3 5.80418912574865 4.837264640054831 7.457430902494215 0 0 0
4203 2 7.659321770365739 1.2410419509837676 6.372434048979183 0 0 0
4891 2 24.508140592671392 10.914910091953452 6.293694941842639 0 0 0
4207 2 7.650737325122913 3.5852516943205535 6.407298741472669 0 0 0
4208 2 8.388304922987707 2.423934987523241 5.79582725021311 0 0 0
4211 2 7.656186260799903 6.11733353962246 6.416159770393719 0 0 0
4212 2 8.378048784927682 4.851539655286441 6.313859555138633 0 0 0
4369 2 9.818143196438898 0.030459221977880552 6.5312356560317895 0 0 0
4370 2 10.49318199041272 1.1887783845139432 5.8340369655102 0 0 0
4371 2 11.832955536495577 1.2071828968060698 6.53125381122994 0 0 0
4890 2 23.094120140272565 10.92289515967331 5.790897987681205 0 0 0
4373 2 9.779678141476932 2.426599783357669 6.308337760048514 0 0 0
4374 2 10.47678185605555 3.633591964491426 5.799973286893293 0 0 0
4375 2 11.872583149455883 3.673383955848437 6.368374420599082 0 0 0
4376 2 12.583747649391475 2.4113796015902635 6.183554759723253 0 0 0
4377 2 9.834720443206335 4.852889867643176 6.414774032497831 0 0 0
4378 2 10.469039050357894 6.05570996797409 5.784143528278542 0 0 0
4379 2 11.8857839334558 6.063119110635713 6.275836619574095 0 0 0
4380 2 12.600932590244053 4.82944053971506 5.769414805164462 0 0 0
10123 3 7.577611578507832 1.3611071000546604 7.451724427174627 0 0 0
10125 3 7.543458564190068 3.424881165607264 7.47907985022348 0 0 0
10127 3 7.552336210014318 6.318035215769319 7.481849826925179 0 0 0
10206 3 9.872173336245885 0.17531167418087748 7.61041038561612 0 0 0
10207 3 11.676111675221568 1.2627164151566808 7.609124268751627 0 0 0
10208 3 9.763121034316065 2.4518130406977194 7.395503241963041 0 0 0
10209 3 11.824357837232586 3.8126352704981286 7.4472546346593 0 0 0
10210 3 10.030861290616249 4.873069616005841 7.485465567295228 0 0 0
10211 3 11.886866455313122 6.074511686659085 7.363147082757733 0 0 0
4537 2 14.02850994416921 0.031108413119373828 6.523185512249249 0 0 0
4538 2 14.676502115288882 1.1907989756816155 5.800945304594847 0 0 0
4539 2 16.074076265659482 1.2538699378674887 6.374761896218504 0 0 0
4889 2 22.400825215011718 9.707620146406807 6.30586044404728 0 0 0
4541 2 14.011669852971874 2.382780205547588 6.489314520191086 0 0 0
4542 2 14.699870119067507 3.6278905690314365 6.144558059135037 0 0 0
4543 2 16.145609518602342 3.6449966011675605 6.372746191599787 0 0 0
4544 2 16.787890906692592 2.4204917486914677 5.783425865123373 0 0 0
4545 2 13.972758498213976 4.875007069491355 6.363521907342221 0 0 0
4546 2 14.695728084451613 6.059817750246308 5.784693802172583 0 0 0
4547 2 16.090188367318213 6.064862386169276 6.295228462169053 0 0 0
4548 2 16.788660396997926 4.8547225275162695 5.7871306364239965 0 0 0
4705 2 18.23466284698757 0.04614192537575569 6.513025629007291 0 0 0
4706 2 18.89782296292311 1.1866593014510824 5.795748581896504 0 0 0
4709 2 18.1946609736419 2.424485223726871 6.289285729199407 0 0 0
4710 2 18.895583424567057 3.6410001753335 5.786155362856129 0 0 0
4713 2 18.19818861362918 4.857431989789144 6.297891379923056 0 0 0
4714 2 18.897907844239853 6.066013823170264 5.786286887124107 0 0 0
10290 3 14.15766084759023 0.162430535475052 7.598261471745179 0 0 0
10291 3 16.017576995149803 1.411326208659765 7.450785255749811 0 0 0
10292 3 14.085176701780048 2.2831327790370097 7.572302540088163 0 0 0
10293 3 16.30828700039316 3.6547724118975404 7.449634675689664 0 0 0
10294 3 13.887383898025732 4.991428666077266 7.442524961515014 0 0 0
10295 3 16.08945704042404 6.065016522698006 7.382627372953574 0 0 0
10372 3 18.327153507417066 0.20783918270865567 7.587577193482511 0 0 0
10374 3 18.191624945958488 2.438079500370162 7.3764258690527225 0 0 0
10376 3 18.206279651803904 4.8624067458445985 7.385139774238754 0 0 0
4707 2 20.277482792667218 1.2629365083614164 6.3819433926291795 0 0 0
4887 2 24.502165015860967 8.501266955568415 6.299343800722908 0 0 0
4711 2 20.29775906939089 3.648118845277703 6.298630973032105 0 0 0
4712 2 20.995788943447717 2.425390712480457 5.7842295772116366 0 0 0
4715 2 20.29610136955813 6.069566898386983 6.304894538743706 0 0 0
4716 2 20.998988822321 4.859590528583734 5.791927557944125 0 0 0
4873 2 22.440237294962394 0.05588871601171761 6.514092724149774 0 0 0
4874 2 23.10053826817878 1.1971362251612747 5.793222138203451 0 0 0
4875 2 24.48335534788695 1.2618472546049302 6.370046332637134 0 0 0
4877 2 22.39137837959157 2.4351229806033095 6.287733064000709 0 0 0
4878 2 23.108004722038 3.657443301266469 5.78875525170428 0 0 0
4879 2 24.471036059239303 3.6073550238933145 6.409838629328106 0 0 0
4881 2 22.399337272257302 4.858825362486959 6.303434905799534 0 0 0
4882 2 23.10738640509996 6.062902905680503 5.796976307702969 0 0 0
4883 2 24.470008507533475 6.1249035991205885 6.421274321337687 0 0 0
10373 3 20.195354584575735 1.4330518732111077 7.4549217866504565 0 0 0
10375 3 20.29714505430927 3.657798325820166 7.385860721240016 0 0 0
10377 3 20.293991249683383 6.06887667475508 7.392119399123511 0 0 0
10456 3 22.534796262887422 0.21637721230343446 7.588636737547736 0 0 0
10457 3 24.409446588485398 1.384000378762843 7.44932430403515 0 0 0
10458 3 22.373000350894067 2.4460092233754716 7.374929494715997 0 0 0
10459 3 24.35939217601611 3.448807405006077 7.481272770668795 0 0 0
10460 3 22.397159184665945 4.856650013925961 7.390748019846743 0 0 0
10461 3 24.355592457262393 6.323503362140042 7.486131594762649 0 0 0
4045 2 1.3913378081596814 7.327455882776768 6.587307635302846 0 0 0
4046 2 2.0386622488440196 8.46915969109908 5.821927278607871 0 0 0
4047 2 3.4733961085697374 8.486238456391236 6.307749660363906 0 0 0
4048 2 4.162626668311553 7.254010720771535 5.817840655996217 0 0 0
4049 2 1.400798064939305 9.71313478963292 6.390465316650394 0 0 0
4050 2 2.0511292212977335 10.908560982559509 5.777100992932432 0 0 0
4051 2 3.4776515708535354 10.903401688324895 6.28429182958661 0 0 0
4052 2 4.176378154758106 9.690459076287715 5.786180178497565 0 0 0
4053 2 1.4006998266341035 12.11295831611843 6.377668022095563 0 0 0
4056 2 4.182282588197371 12.130691475990151 5.784023518316331 0 0 0
4213 2 5.579772579245521 7.273044285999019 6.304362625147367 0 0 0
4214 2 6.282309633430167 8.483487845326074 5.791981831789759 0 0 0
4217 2 5.577782213255946 9.694980294694401 6.304235399192696 0 0 0
4218 2 6.280434510419743 10.908287738451607 5.793096534547279 0 0 0
4221 2 5.577818213777077 12.121323871406666 6.301852276486232 0 0 0
10381 3 20.393978560630455 10.736349351531688 7.587263572125465 0 0 0
10379 3 20.283727483932108 8.474453283694519 7.392279809844092 0 0 0
4893 2 22.44346777934354 12.13217231518874 6.3811053637943935 0 0 0
10045 3 1.4933467022425344 7.510254238450886 7.663226417492585 0 0 0
10046 3 3.4961758518627106 8.507330301399548 7.394350431218032 0 0 0
10047 3 1.5850849580770594 9.735597603538192 7.463475486825531 0 0 0
10048 3 3.490423107099987 10.893555099689454 7.371445802621564 0 0 0
10049 3 1.5538531269212463 12.09544742561195 7.455452361183591 0 0 0
10128 3 5.588422194298793 7.289940814600128 7.390993778049256 0 0 0
10130 3 5.576034128217894 9.695655028603861 7.391386035694344 0 0 0
10132 3 5.574779332436866 12.118520514843139 7.38909584952197 0 0 0
4215 2 7.686766754549087 8.49129583301982 6.30066413264296 0 0 0
4216 2 8.388736817679279 7.2629303257625635 5.7926734101468655 0 0 0
4219 2 7.6823561482421105 10.909448965999992 6.303269676606094 0 0 0
4220 2 8.386295575520814 9.699840407272344 5.788867428902669 0 0 0
4224 2 8.382582875255105 12.119688496933753 5.786885316251101 0 0 0
4381 2 9.785502729682207 7.271729140323124 6.2993103771239545 0 0 0
4382 2 10.486891328093055 8.484072450546474 5.788892227932627 0 0 0
4383 2 11.886809347577902 8.481427999523579 6.297574744382217 0 0 0
4384 2 12.59565874533376 7.279113661367004 5.778038755457584 0 0 0
4385 2 9.787074130298887 9.697237096860613 6.30169574709758 0 0 0
4386 2 10.487434186615703 10.909763069398911 5.78828617326897 0 0 0
4387 2 11.88674084906318 10.90605931899425 6.299406557221751 0 0 0
4388 2 12.606545703544878 9.697221399635284 5.803793502651892 0 0 0
4389 2 9.777942350253044 12.118531112176273 6.30018435871494 0 0 0
4392 2 12.597204022680934 12.132425693229939 5.799382841243263 0 0 0
10129 3 7.689078571906023 8.508894199066182 7.387749950508951 0 0 0
10131 3 7.683561749309045 10.909963257885668 7.390399155644524 0 0 0
10212 3 9.788851667502147 7.272005717334605 7.386561223025327 0 0 0
10213 3 11.877440830710386 8.467967945405881 7.384640239732583 0 0 0
10214 3 9.787363260344057 9.697045750414096 7.388865619081908 0 0 0
10215 3 11.873490147724063 10.891230936093772 7.386201698343711 0 0 0
10216 3 9.757382545664564 12.105229112753676 7.387015644222039 0 0 0
4549 2 13.96660769012189 7.234074996528274 6.373086629655551 0 0 0
4550 2 14.680762529434768 8.489708648706232 6.156764419357127 0 0 0
4551 2 16.12294465603732 8.487583738714001 6.374635223176344 0 0 0
4552 2 16.782001630144997 7.28076867539435 5.786539771278381 0 0 0
4553 2 13.940801763531205 9.701178290426066 6.504280980420048 0 0 0
4554 2 14.68353045344743 10.916915120531527 6.164836132729694 0 0 0
4555 2 16.12974974005464 10.91747318047354 6.377240192620716 0 0 0
4556 2 16.768956459717106 9.709810091396674 5.781853075631438 0 0 0
4557 2 13.963068300611877 12.167878406105576 6.39330028041011 0 0 0
4560 2 16.789500774442477 12.11935947267548 5.784534147618079 0 0 0
4717 2 18.19455523296211 7.271718782388531 6.293768420574542 0 0 0
4718 2 18.89176445589622 8.498627166724642 5.78692416259054 0 0 0
4721 2 18.164099780908433 9.662742623189004 6.372346595726982 0 0 0
4722 2 18.895422757139357 10.912131378353942 6.156115466748568 0 0 0
4725 2 18.17607455642089 12.166221594924151 6.368372715641499 0 0 0
10296 3 13.883576464432108 7.11170670746493 7.451429336883519 0 0 0
10297 3 16.26940050138301 8.477190753981949 7.453149950805042 0 0 0
10298 3 13.776926056581079 9.698248132051614 7.581704301104728 0 0 0
10299 3 16.30318147050317 10.916605606472233 7.452542937461462 0 0 0
10300 3 13.874362621275145 12.283098538621317 7.471567119089913 0 0 0
10378 3 18.199953947900422 7.259367060117927 7.381164444519239 0 0 0
10380 3 18.10459954194508 9.527174031849663 7.451037720861563 0 0 0
10382 3 18.10341304864765 12.32040795088823 7.44415069516282 0 0 0
4719 2 20.29023035939131 8.491021692790335 6.30507514651629 0 0 0
4720 2 20.993333676750108 7.283404399490996 5.792330505855025 0 0 0
1009 1 25.17147284126871 0.008012773148895435 3.845464628848515 0 0 0
1013 1 25.186550055179143 2.4414720146034328 4.256164918239111 0 0 0
1021 1 25.191718601760897 7.275014390831286 4.254273964666512 0 0 0
1029 1 25.198419054002937 12.145459917314396 4.247275110143687 0 0 0
841 1 20.97259455676505 0.011399370733553951 3.8352669832299204 0 0 0
4888 2 25.19970042945502 7.272121225904489 5.7919772051622616 0 0 0
22 1 0.7480068234689274 13.319731815173578 3.5244600424754253 0 0 0
23 1 2.08413641116551 13.32917399645562 4.239882189840348 0 0 0
4744 2 21.004480730416365 21.842934515044444 5.795251632599763 0 0 0
26 1 0.7389021896596087 15.756442992559275 3.516344004556211 0 0 0
27 1 2.085433567830832 15.75644687942988 4.235462832238284 0 0 0
28 1 2.7414498738992497 14.541371203709103 3.6356647523742938 0 0 0
29 1 0.0026123877994895773 16.972415457570637 3.848513980896471 0 0 0
30 1 0.7532526822095078 18.179381530218535 3.5221111696394947 0 0 0
31 1 2.0855282411305414 18.1860985988319 4.241612689728436 0 0 0
32 1 2.7999416932682073 16.971772487950737 3.74726910108367 0 0 0
190 1 4.921336915398138 13.27555447164849 3.629315000753024 0 0 0
191 1 6.281001961795945 13.340802601930703 4.255353684256768 0 0 0
193 1 4.198617491384004 14.536753976640155 3.74044751057432 0 0 0
194 1 4.924758772199797 15.800308866826219 3.639480455036611 0 0 0
195 1 6.2844464358499925 15.750062948832129 4.263136002504543 0 0 0
197 1 4.184995698353524 16.971518646565404 4.2522136705009395 0 0 0
198 1 4.921775065890864 18.143386106620994 3.639553663649371 0 0 0
199 1 6.2795122520745625 18.189839938762024 4.265735671075815 0 0 0
8074 3 0.9105046564344716 13.303357307361816 2.44663861520157 0 0 0
8076 3 0.89637155539809 15.776286256756784 2.438726602073218 0 0 0
8077 3 2.591921788506453 14.542326512297032 2.5583872727261445 0 0 0
8078 3 0.923736388715838 18.139333698915983 2.4460181601390754 0 0 0
8079 3 2.823095323979881 16.972158550592578 2.660327449894555 0 0 0
8151 3 5.035096997826183 13.079233617012479 2.564185990185235 0 0 0
8153 3 5.036660103708144 15.945576898780523 2.5665584901938994 0 0 0
8155 3 5.033418692609331 17.998822177509066 2.5665213343320663 0 0 0
196 1 6.993075235727127 14.546450322358686 3.7525308873107592 0 0 0
200 1 7.0057119640126135 16.97160396185974 3.764342102193782 0 0 0
358 1 9.092017377165892 13.333529551104167 3.7553369399440686 0 0 0
359 1 10.510097991672712 13.346195020909658 4.2621953804995005 0 0 0
361 1 8.393070621542151 14.546716324610815 4.270006282082264 0 0 0
362 1 9.098839815647265 15.761132601508258 3.7702094995335753 0 0 0
363 1 10.528463819983177 15.756810537186498 4.276915160744577 0 0 0
364 1 11.152108058157214 14.55318365804436 3.6388826401068126 0 0 0
365 1 8.40090134154777 16.97370036340214 4.278882712135237 0 0 0
366 1 9.095711646194482 18.185365689056955 3.763639512354742 0 0 0
367 1 10.52744888950808 18.190121134111607 4.255009113586563 0 0 0
368 1 11.17191263157112 16.958863333947658 3.6717488995695806 0 0 0
529 1 12.615078908663191 14.591694153850312 3.719263953685359 0 0 0
533 1 12.621142036242464 16.924419174918707 3.8581304364754407 0 0 0
8154 3 6.999928442162334 14.548586749883901 2.6651109201204184 0 0 0
8156 3 7.02991491696126 16.972105517631284 2.677105479185063 0 0 0
8234 3 9.079137422988104 13.327921989314124 2.6679599475996523 0 0 0
8236 3 9.080998353898277 15.766712069515046 2.6827905235445355 0 0 0
8237 3 10.916534051415066 14.552377928565916 2.575059929329242 0 0 0
8238 3 9.072022622196377 18.178451774764408 2.676491709857806 0 0 0
8239 3 10.986780006996764 16.947107550931793 2.5981327720733747 0 0 0
526 1 13.312171109415038 13.30679020424478 3.634348583011801 0 0 0
527 1 14.665751187297007 13.365602116431662 4.264672472528011 0 0 0
530 1 13.291299872741748 15.751875964882299 3.814556593672227 0 0 0
531 1 14.63937742367093 15.767396129576616 3.902168284360702 0 0 0
532 1 15.392609759437017 14.53712102930358 3.666847540755413 0 0 0
534 1 13.349058165777857 18.153554980664882 3.527692903869738 0 0 0
535 1 14.660132616059403 18.18977275632926 4.269175611073451 0 0 0
536 1 15.39741676424184 17.002598250053886 3.6773140223148255 0 0 0