LAMMPS data file via write_data, version 23 Jun 2022, timestep = 2460

9123 atoms
3 atom types

0 100.8 xlo xhi
0 101.845 ylo yhi
-80 80 zlo zhi

Masses

1 12.0107
2 12.0107
3 1.00784

Atoms # atomic

8706 3 22.504624680735603 12.282677446150137 7.775803390829424 0 0 0
2 1 0.7286822671979577 1.2171765560699388 3.4716030947657215 0 0 0
3 1 2.1208527075159 1.2092912795238469 3.4105745890799013 0 0 0
4892 2 25.098005237214934 9.638247213190127 6.460158839922449 0 0 0
5 1 0.09171753206230672 2.4277801304573794 3.543032800480455 0 0 0
6 1 0.7535631613829734 3.632133129446446 3.5532139750211518 0 0 0
7 1 2.139815174454058 3.6273959361429022 3.4667554798830107 0 0 0
8 1 2.8198412278176246 2.414304320367045 3.4090111660307962 0 0 0
9 1 0.09845738113476521 4.8410028086883345 3.5605302009222304 0 0 0
10 1 0.7377567566874319 6.052902115390076 3.500253703926848 0 0 0
11 1 2.1305046374801937 6.053298767183111 3.446031459591403 0 0 0
12 1 2.818998329726998 4.839992405866591 3.4415150836409683 0 0 0
4888 2 25.094836575839604 7.242959141197452 6.513873479520966 0 0 0
170 1 4.907940525798478 1.2011926218432516 3.3427196202952856 0 0 0
171 1 6.300874821750822 1.1944526669970295 3.339897066624267 0 0 0
173 1 4.210193644133134 2.406282345988819 3.376422543968958 0 0 0
174 1 4.900250581761035 3.6139522375068607 3.4166661873589046 0 0 0
175 1 6.291026505776511 3.592816160031331 3.4533213225778217 0 0 0
177 1 4.207081939817415 4.825349297928081 3.4400038895111176 0 0 0
178 1 4.902929770056484 6.029550129400845 3.4875560948750493 0 0 0
179 1 6.270295384356528 5.969195072522055 3.5469777295381446 0 0 0
1025 1 25.141916741469707 9.721593980154474 3.55843526141634 0 0 0
176 1 6.999796694564119 2.3963309608325725 3.3916881209288254 0 0 0
180 1 6.984699579041478 4.7936265319071465 3.5439458437321494 0 0 0
1021 1 25.146967335919868 7.169497981425941 3.5343899318631418 0 0 0
338 1 9.095789864598476 1.1939146970902272 3.3331700188448434 0 0 0
339 1 10.488553643020442 1.2019712855211395 3.3187871137024927 0 0 0
1017 1 25.168189109835286 4.794768942085175 3.446991438414263 0 0 0
341 1 8.394827908938801 2.393180352624554 3.392163094074411 0 0 0
342 1 9.087765592654872 3.599998531669496 3.45650581375001 0 0 0
343 1 10.483884615436144 3.6193576967713947 3.412851221259904 0 0 0
344 1 11.18274341479583 2.410639345219992 3.3469835312269454 0 0 0
345 1 8.359375699375914 4.758507625860636 3.5344289407849727 0 0 0
346 1 9.0839269227084 6.061219241389696 3.3611534560002814 0 0 0
347 1 10.57018626813494 6.0387965331047555 3.5210615038882938 0 0 0
348 1 11.195611294589936 4.820679245504217 3.4626264074707467 0 0 0
4890 2 23.091392786414264 10.825645333491655 6.502148016717789 0 0 0
509 1 12.576852092679992 2.4007911173326764 3.3398799636994205 0 0 0
513 1 12.585050998445443 4.806660369605795 3.4455106616632056 0 0 0
8104 3 8.969384480240679 6.200707923970074 2.2836639782052877 0 0 0
506 1 13.283217771395579 1.20008528817375 3.3113777291030404 0 0 0
507 1 14.677954959699507 1.1958097458309602 3.3198843270672493 0 0 0
4889 2 22.363455391940743 9.663951807157842 6.541927532552137 0 0 0
510 1 13.278672328850703 3.6002579773072663 3.3969954319609243 0 0 0
511 1 14.66964282408439 3.5822985677004184 3.435169846415802 0 0 0
512 1 15.383420521291116 2.392708947108809 3.371002368417162 0 0 0
514 1 13.286216455269956 6.011266183565387 3.5077683445353323 0 0 0
515 1 14.648412719653662 5.945699482434395 3.5823960296104063 0 0 0
516 1 15.362770260151727 4.778050169310455 3.5534467371255922 0 0 0
4887 2 24.427188043962044 8.440935500344272 6.491030014074363 0 0 0
674 1 17.482019576183337 1.203823310004208 3.328496682854716 0 0 0
675 1 18.875369948276315 1.210935362362498 3.3204340822516945 0 0 0
677 1 16.77959549132503 2.4024143874657162 3.3810679508317945 0 0 0
678 1 17.472967014566045 3.6108614331528908 3.46552428290552 0 0 0
679 1 18.872974436740456 3.624485235551061 3.4179302899659687 0 0 0
681 1 16.7343418605203 4.763217172699393 3.57703175864055 0 0 0
682 1 17.439377302554135 6.062433203325331 3.5328653421447864 0 0 0
683 1 18.9771239826555 6.027782616608896 3.5738329529143456 0 0 0
8154 3 17.60203881371567 6.344501993678259 2.4678768642751763 0 0 0
4886 2 23.037030324102645 8.445124080122216 6.5522074900442515 0 0 0
680 1 19.574420510916394 2.417314561847201 3.341243920273029 0 0 0
684 1 19.600514935194163 4.815761792028645 3.4654766876533403 0 0 0
4885 2 22.351607178426523 7.236545042446114 6.6088605508346285 0 0 0
842 1 21.67487013765471 1.210474287343374 3.3106735749137335 0 0 0
843 1 23.070224384765474 1.2075428796800405 3.313935496116013 0 0 0
4728 2 20.893109915776904 12.100678804445787 6.522711731375436 0 0 0
845 1 20.97096477259139 2.4118180222168313 3.3189888504860114 0 0 0
846 1 21.683715338401683 3.6063624773448226 3.338362070472898 0 0 0
847 1 23.076076146335346 3.606142709670606 3.339346569707217 0 0 0
848 1 23.778067003042636 2.4054540755339877 3.3215605198820484 0 0 0
849 1 20.99172341352189 4.808805784591353 3.393468053001872 0 0 0
850 1 21.690916811905424 6.014211229235956 3.4100734446507373 0 0 0
851 1 23.080185453024093 6.0119310077663854 3.416570339108514 0 0 0
852 1 23.77695930087478 4.8066935298621845 3.393836620359081 0 0 0
4893 2 22.371650050344602 12.11881138360326 6.705004647263134 0 0 0
14 1 0.7235223425633249 8.46470352767192 3.421201214741705 0 0 0
15 1 2.1176020127551625 8.46234499367381 3.397645817503508 0 0 0
16 1 2.82378209175498 7.259413007591651 3.4186714032220413 0 0 0
17 1 0.03889810241721555 9.68000402047129 3.426751006669427 0 0 0
18 1 0.7256329300596447 10.894537592091243 3.3917988372981243 0 0 0
19 1 2.1156435605568435 10.887516501083379 3.3711701052480603 0 0 0
20 1 2.8022441723098748 9.675563737905803 3.3900859033536643 0 0 0
21 1 0.05114944012761187 12.115852161968224 3.401811129981863 0 0 0
24 1 2.7994919065128734 12.100147630737597 3.3710843812101734 0 0 0
181 1 4.219283304234421 7.2496394813941585 3.4532601770762934 0 0 0
182 1 4.895381491999189 8.470004078729042 3.4880569449356162 0 0 0
183 1 6.262935371139056 8.515634242720363 3.5535825028150256 0 0 0
185 1 4.191465818022753 9.672644931729446 3.43801004674631 0 0 0
186 1 4.881590027017964 10.883499574342204 3.4600070260350875 0 0 0
187 1 6.271394485837649 10.8823201386319 3.537076134160964 0 0 0
189 1 4.187838147913216 12.092328767002721 3.425025744880183 0 0 0
184 1 7.029488606238428 7.24219154512984 3.3723500881327113 0 0 0
188 1 6.978064284343545 9.686414167202123 3.5730065460274476 0 0 0
192 1 6.9734108667026025 12.080241167284324 3.567422985602019 0 0 0
349 1 8.400894925412054 7.2415876952317095 4.1924827858316425 0 0 0
350 1 9.079845032117886 8.425093770398824 3.3596062089779646 0 0 0
351 1 10.571630573529882 8.453330119893351 3.5201540940236637 0 0 0
352 1 11.23415550409445 7.246182259502794 3.5302776452262523 0 0 0
353 1 8.35616831067934 9.713259471084207 3.5580318584580386 0 0 0
354 1 9.07806278052737 10.877920597692215 3.5366690108056535 0 0 0
355 1 10.481484283027529 10.87716160098005 3.465179397110581 0 0 0
356 1 11.199470381047162 9.671812467931431 3.470016182595164 0 0 0
357 1 8.351200301577611 12.03979418448853 3.558992030087212 0 0 0
360 1 11.19802406099093 12.083308197759063 3.4548552576915745 0 0 0
517 1 12.629269019417366 7.24431494964398 3.502822488709013 0 0 0
521 1 12.593301124394799 9.679212974822653 3.443721837791608 0 0 0
525 1 12.591737095193503 12.089820383667165 3.393086294777218 0 0 0
8075 3 7.20152020601053 7.264741930449854 2.2941799417468483 0 0 0
8105 3 9.00567183727353 8.263546247346476 2.2823463006591784 0 0 0
518 1 13.300079869459516 8.472288235847023 3.5034478194399257 0 0 0
519 1 14.669155102900039 8.529745047561144 3.57574027141076 0 0 0
520 1 15.438790165037057 7.265410571466342 3.5309435314390845 0 0 0
522 1 13.28575718306746 10.887158586835103 3.402473154587339 0 0 0
523 1 14.674711565719166 10.90875037928532 3.4242663890300116 0 0 0
524 1 15.363841814320256 9.71068899944141 3.5396283717222317 0 0 0
528 1 15.38927204536341 12.101892573117938 3.364913954320484 0 0 0
685 1 16.782637662919758 7.240531455230139 4.399132810823669 0 0 0
686 1 17.471097489611868 8.391194343436247 3.526625406749397 0 0 0
687 1 18.94721001775086 8.422792061807616 3.579692951722688 0 0 0
689 1 16.730982393902757 9.742499129277327 3.5663618372210797 0 0 0
690 1 17.468040258174096 10.888695803696049 3.4725537429126305 0 0 0
691 1 18.861139543027857 10.846955391246683 3.472532712245243 0 0 0
693 1 16.784677839239897 12.099734123872446 3.3832006422647325 0 0 0
8132 3 15.597130592183664 6.979335218128792 2.46624936492764 0 0 0
8155 3 17.147245358122312 8.393820969706184 2.4610231224775827 0 0 0
688 1 19.629138154389885 7.2316083726614515 3.5544574826633304 0 0 0
692 1 19.576215989617236 9.638899321496993 3.511842265926035 0 0 0
696 1 19.560455216600143 12.05798606741518 3.470766424433914 0 0 0
853 1 21.01416076622554 7.227818867368305 3.461053616797574 0 0 0
854 1 21.69724775093869 8.437901116287119 3.4592817177433917 0 0 0
855 1 23.09444280315814 8.430433264578147 3.4758495278731134 0 0 0
856 1 23.778350216825004 7.214970481275389 3.477973682140281 0 0 0
857 1 20.970762153501468 9.629995238535512 3.495338988767176 0 0 0
858 1 21.652734788914774 10.83553528582912 3.5507100422815254 0 0 0
859 1 23.025026462661852 10.800425997835148 3.569474734249208 0 0 0
860 1 23.769518886154632 9.649226073142904 3.543644228610059 0 0 0
861 1 20.92901988453854 12.004399062176294 3.5325263124512465 0 0 0
864 1 23.75121468731475 12.102755189872385 3.4165780995134987 0 0 0
8176 3 23.667961538806328 12.24901216532455 2.33726208291555 0 0 0
4724 2 20.97180155099633 9.686558637494581 6.569299641226862 0 0 0
4034 2 2.134368517264982 1.2288922250677345 6.638633988642573 0 0 0
4035 2 3.52456749737617 1.2381954022857653 6.686868245400194 0 0 0
4723 2 20.257293639306177 10.889611344146259 6.546250395510339 0 0 0
4037 2 1.4280380352264916 2.4261014528077 6.583163959444855 0 0 0
4038 2 2.109405042928535 3.6431839151327545 6.6257739135570475 0 0 0
4039 2 3.504709762705029 3.6413653314808916 6.667057186219654 0 0 0
4040 2 4.2175197640708335 2.4447784308427303 6.693159898629974 0 0 0
4041 2 1.4259139024097252 4.86061568863247 6.5977743820178905 0 0 0
4042 2 2.120386928762019 6.065482784422805 6.65540192782117 0 0 0
4043 2 3.5080535388370198 6.058067501960689 6.649560374027632 0 0 0
4044 2 4.198058090184794 4.846465224288897 6.642108584921129 0 0 0
4720 2 20.956216958223674 7.249149456200764 6.608142665367137 0 0 0
4202 2 6.3150471502879055 1.2388544084790514 6.714877582815384 0 0 0
4205 2 5.612676470988081 2.443473599962173 6.690203069831976 0 0 0
4206 2 6.3117484168173155 3.6500275410943335 6.625648173797894 0 0 0
4209 2 5.590440274251436 4.84714166851782 6.585652085502367 0 0 0
4210 2 6.225550420669412 6.059142157511383 6.51247421677818 0 0 0
4719 2 20.277810759423893 8.474343404061344 6.577117302859898 0 0 0
7904 2 0.06133925997432675 2.3637616004998376 6.51154756053987 1 0 0
7908 2 0.05941237627585568 4.910888995705685 6.533866934546111 1 0 0
4203 2 7.707778905027362 1.220385000209588 6.7077118456017475 0 0 0
8688 3 17.992214013879217 7.249109875463492 7.8505836663433195 0 0 0
4207 2 7.708798233384422 3.6191061451826343 6.578589111413653 0 0 0
4208 2 8.408332482276785 2.416725906443716 6.646824316695596 0 0 0
4211 2 7.714600216088206 6.073876608796028 6.6671387183045505 0 0 0
4212 2 8.438837495150365 4.773625827687454 6.4951095755341015 0 0 0
8666 3 16.17483918826688 8.294214243985053 7.851826216593469 0 0 0
4370 2 10.511228210928017 1.2124957722112732 6.707460816217252 0 0 0
4371 2 11.905211847754005 1.2132964957993757 6.713529170154083 0 0 0
4725 2 18.157794793278423 12.099290917638111 6.591953976939517 0 0 0
4373 2 9.803469826809865 2.408132703728804 6.647110044280391 0 0 0
4374 2 10.511840436471212 3.6010026652201184 6.5771448216120705 0 0 0
4375 2 11.90278224883615 3.611727858099636 6.6122929565122535 0 0 0
4376 2 12.608200922992935 2.4145484450579926 6.676742676514328 0 0 0
4377 2 9.813306809594243 4.798671409552858 6.483637887240149 0 0 0
4378 2 10.524999807523422 5.971970916685188 6.474142576167465 0 0 0
4379 2 11.892360888741731 6.022008335129587 6.517730684331112 0 0 0
4380 2 12.594736013221292 4.817623087592366 6.57077040705326 0 0 0
8605 3 7.813552239463948 6.218535631282875 7.745755890117057 0 0 0
4722 2 18.866645462541587 10.89905693806501 6.554801326865787 0 0 0
4538 2 14.700048620685218 1.2141310663702674 6.70799529856438 0 0 0
4539 2 16.092737564818943 1.207661812560178 6.6959147031004855 0 0 0
4721 2 18.18179229239386 9.69304725332596 6.531239880985678 0 0 0
4541 2 14.002157142351207 2.420267160578643 6.678886381923918 0 0 0
4542 2 14.700753552728012 3.6281349131361713 6.6264879009946345 0 0 0
4543 2 16.0972983399849 3.609074525497274 6.601105862850607 0 0 0
4544 2 16.79455507133227 2.4052352340652914 6.650385682194628 0 0 0
4545 2 13.984912726082754 4.82639367692745 6.57752205788541 0 0 0
4546 2 14.616642377937303 6.0410004613652895 6.553965459789266 0 0 0
4547 2 16.095196529584623 6.058493334083432 6.772551550168674 0 0 0
4548 2 16.823774934961033 4.769335264707331 6.559398883944023 0 0 0
4718 2 18.907580483560952 8.524019260265327 6.555233597141395 0 0 0
4706 2 18.893532954052244 1.2074511227965807 6.697881906647425 0 0 0
4709 2 18.189580506944097 2.406006081950244 6.6542337438944 0 0 0
4710 2 18.897874389577815 3.601973437302296 6.609058431423777 0 0 0
4713 2 18.199337440406328 4.802746438721574 6.543819909990138 0 0 0
4714 2 18.913964024366745 5.976910840530905 6.557646248345187 0 0 0
8665 3 16.17811506305094 6.201319850478734 7.852084225540585 0 0 0
4707 2 20.2870274012961 1.2098373991144455 6.708633583421228 0 0 0
4717 2 18.158429137126905 7.249214637394298 6.771144259381837 0 0 0
4711 2 20.289449229963132 3.6159698653352845 6.65139538439922 0 0 0
4712 2 20.98864615765192 2.4132506806426997 6.699164475340248 0 0 0
4715 2 20.28199598728522 6.02670511673005 6.594280831537207 0 0 0
4716 2 20.985414078004172 4.823878255503958 6.639230648216148 0 0 0
4560 2 16.765299778326106 12.103499287085839 6.623315991429551 0 0 0
4874 2 23.08127353496019 1.215563274731723 6.725078945356235 0 0 0
4875 2 24.473749738352332 1.2122957239112593 6.730891857219434 0 0 0
4877 2 22.38137357189878 2.4180907229423276 6.716634686452331 0 0 0
4878 2 23.078962488762162 3.622993095810441 6.7005112755069955 0 0 0
4879 2 24.472690743058628 3.6234205060413327 6.6954274202928845 0 0 0
4881 2 22.375343930515008 4.823119240501758 6.664837835501083 0 0 0
4882 2 23.059652879624842 6.032285785127942 6.628531893496662 0 0 0
4883 2 24.454842034330657 6.032843215495559 6.588157201849812 0 0 0
4045 2 1.4305774074655153 7.277135878569153 6.685575996805126 0 0 0
4046 2 2.115651737256131 8.489169141671095 6.71916334878991 0 0 0
4047 2 3.5055980452451108 8.487863069039907 6.680081537139855 0 0 0
4048 2 4.18305642920183 7.272873206806661 6.619558257664306 0 0 0
4049 2 1.4207630156686195 9.69560059400329 6.733998430742501 0 0 0
4050 2 2.0997403439396516 10.911262384687948 6.731197683373803 0 0 0
4051 2 3.4921063654307267 10.901229884491446 6.699655163853755 0 0 0
4052 2 4.195730944594975 9.70016432815389 6.665097634606111 0 0 0
4053 2 1.3958161100216981 12.118343705250767 6.7060265252908575 0 0 0
4056 2 4.185140341984486 12.10435789672773 6.651193519407216 0 0 0
4213 2 5.567673984177598 7.267911087199097 6.519256738813486 0 0 0
4214 2 6.223976781859042 8.47484976877745 6.513681964516292 0 0 0
4217 2 5.589414088313382 9.690608870578222 6.582193323498223 0 0 0
4218 2 6.303596552267207 10.896023067884425 6.570457931881997 0 0 0
4221 2 5.579277847350871 12.0973402752869 6.575887089565646 0 0 0
7912 2 0.04069937308744469 7.284648847552625 6.646472841992727 1 0 0
7916 2 0.032978877610779514 9.69099825386697 6.695261102919961 1 0 0
4891 2 24.466547508260856 10.849361482074992 6.4573170284162575 0 0 0
4215 2 7.712825695197903 8.439167207917931 6.667570776612961 0 0 0
4216 2 8.391913592504505 7.251945868062538 5.834243701801988 0 0 0
4219 2 7.706924842476998 10.890496703939666 6.496002107989227 0 0 0
4220 2 8.431623084098996 9.727043894059463 6.469800146123508 0 0 0
4224 2 8.432156637727385 12.05307391012055 6.477607384483826 0 0 0
4381 2 9.764145692018566 7.24634227513879 6.6541697247473515 0 0 0
4382 2 10.523227765045496 8.520319745246745 6.4710989099728335 0 0 0
4383 2 11.890599830684849 8.472633378384094 6.515079857609492 0 0 0
4384 2 12.560156711594011 7.247583784668726 6.527138361235359 0 0 0
4385 2 9.808200409362843 9.6909351083132 6.455593866890056 0 0 0
4386 2 10.513340632730785 10.885128928767951 6.490790372449192 0 0 0
4387 2 11.902495944357613 10.8866217113569 6.5564855279936385 0 0 0
4388 2 12.5910981037393 9.678468449268099 6.555998078909405 0 0 0
4389 2 9.8100535992503 12.08008717501386 6.462941921001228 0 0 0
4392 2 12.603978734845047 12.089369650505812 6.5943017371222075 0 0 0
8606 3 7.802966157310719 8.27898401599904 7.743621607403492 0 0 0
8638 3 9.594356117664933 7.252561639234325 7.732811186640163 0 0 0
4549 2 13.9543813734464 7.24818856247058 6.526467610443205 0 0 0
4550 2 14.612404539332829 8.45699326948378 6.553370329530314 0 0 0
4551 2 16.08864811615906 8.43897273941548 6.7730597659258995 0 0 0
4552 2 16.782148924399653 7.248800928727502 5.9995101340587755 0 0 0
4553 2 13.98001811119011 9.671622909789985 6.57183420907832 0 0 0
4554 2 14.686992421952805 10.875041598511705 6.61435926264458 0 0 0
4555 2 16.081060008070455 10.891436947750398 6.592255304375353 0 0 0
4556 2 16.808544122188195 9.730203106126561 6.556740053175039 0 0 0
4557 2 13.994356631997345 12.087116732260826 6.639891770966701 0 0 0
4708 2 20.988755595825054 0.006776642448560804 6.706514552141235 0 0 0
844 1 23.774502277241446 0.007646907641811915 3.3397720412435303 0 0 0
4873 2 22.38146381335279 0.013496007072146874 6.703063070503201 0 0 0
1013 1 25.172003141712466 2.3993028557741396 3.3387785819247 0 0 0
13 1 0.025301779251403568 7.255518667840914 3.4736848558040414 0 0 0
4 1 2.8156069232892986 0.006394311160629607 3.377511136071412 0 0 0
4036 2 4.226050261197454 0.038194290064548844 6.694564866396604 0 0 0
841 1 20.97003153304019 0.011147774551759533 3.3301895441036007 0 0 0
4705 2 18.191060816575177 0.007496794437663664 6.706128506499927 0 0 0
673 1 16.776880097702016 0.003637870208321394 3.316450792857061 0 0 0
4201 2 5.618262306790146 0.03424257117400928 6.716967467270173 0 0 0
676 1 19.575779351482296 0.005949175870670823 3.322422648390366 0 0 0
4880 2 25.1704730612797 2.416670460898219 6.723844558796285 0 0 0
4876 2 25.178790529737768 0.011775099356021205 6.719384484310024 0 0 0
4540 2 16.796875550118184 0.00857826920192464 6.707869043122954 0 0 0
1 1 0.00652899115210654 0.02273588302653684 3.4462052204357856 0 0 0
4537 2 13.999627100117678 0.00998617895219314 6.726410528094667 0 0 0
4204 2 8.415896794610136 0.0230619131525937 6.736108135875073 0 0 0
4372 2 12.606791262084657 0.011313670281039896 6.7349098461381685 0 0 0
4884 2 25.16954722882416 4.831558724751218 6.634758432602528 0 0 0
4033 2 1.428603163177199 0.027421846058642788 6.627930976544965 0 0 0
4369 2 9.809280041073816 0.013149504367026122 6.7385398097558635 0 0 0
22 1 0.7251890724517946 13.331172330202795 3.358148410600706 0 0 0
23 1 2.115203475941088 13.313962376509439 3.356730947850593 0 0 0
25 1 0.023563081760070884 14.539890823211378 3.3540955105499837 0 0 0
26 1 0.6978523698092303 15.7518405286445 3.3590061128951847 0 0 0
27 1 2.084097986963323 15.71960664171722 3.4136301907913347 0 0 0
28 1 2.8026696784168217 14.522317329098431 3.3922746021601116 0 0 0
8711 3 22.189732382007193 24.20032144473998 7.821925693711122 0 0 0
30 1 0.6953587212073132 18.174907519557888 3.4328410559773914 0 0 0
31 1 2.0620480167717177 18.105922191500312 3.5407744752986514 0 0 0
32 1 2.760486852092588 16.92255355495007 3.527700095166938 0 0 0
190 1 4.885554528841007 13.296370396053884 3.474225407716645 0 0 0
191 1 6.254030615737022 13.251157219303462 3.5400114228891084 0 0 0
193 1 4.1982989935603445 14.51064992213765 3.453904206699123 0 0 0
194 1 4.868139067220718 15.730596391515386 3.5412346068336045 0 0 0
195 1 6.236712382200438 15.804033973801149 3.5698961013491726 0 0 0
197 1 4.124321171356008 16.87947481274251 3.582028232811834 0 0 0
198 1 4.86087802044329 18.226783432554072 3.537405254387964 0 0 0
199 1 6.329331496800851 18.18755061736976 3.633092667801945 0 0 0
8077 3 4.557033544289732 18.217901978076547 2.467889646636405 0 0 0
196 1 7.0109079199452085 14.527491874624538 3.3766996935533267 0 0 0
200 1 6.962976959754667 16.97109494283777 3.6138038897874853 0 0 0
358 1 9.07460044661724 13.329639437333324 3.36191377366083 0 0 0
359 1 10.561682900565314 13.29594644776331 3.5160687234856294 0 0 0
361 1 8.387320432323513 14.503355021700981 4.198613107469794 0 0 0
362 1 9.069269574082302 15.683370210803186 3.3839062809468676 0 0 0
363 1 10.56854232164713 15.695088779387687 3.551462260600342 0 0 0
364 1 11.231453095754311 14.495776820691027 3.51972302069208 0 0 0
365 1 8.337733416120937 16.96192825950718 3.5959093652308347 0 0 0
366 1 9.071114606977503 18.112672626386935 3.6258559342803944 0 0 0
367 1 10.442439539980098 18.044397377741358 3.6068289073678392 0 0 0
368 1 11.205088985287912 16.90725562236008 3.5486647676704566 0 0 0
529 1 12.618399633291792 14.506908544939604 3.4235566000783506 0 0 0
533 1 12.599663565144924 16.933169270481354 3.463468946544943 0 0 0
8076 3 7.1901356549886914 14.577534645675037 2.300434737307695 0 0 0
8106 3 8.94895832236567 13.475632323784374 2.287369898649925 0 0 0
8107 3 9.025696373670012 15.532307331344764 2.302614181480641 0 0 0
526 1 13.299855301440175 13.294469709621024 3.3690577132635005 0 0 0
527 1 14.692250392369072 13.304838583888907 3.330467242344677 0 0 0
530 1 13.300961085534498 15.723109890203382 3.3935252136838203 0 0 0
531 1 14.693904273960305 15.717527109202326 3.3261540415255872 0 0 0
532 1 15.39022577922398 14.509708859575984 3.3080441000606466 0 0 0
534 1 13.304705566349776 18.13762819265974 3.469253543504936 0 0 0
535 1 14.696754583448984 18.12553694311649 3.367161604666044 0 0 0
536 1 15.392632399398119 16.921464943823096 3.315655729953516 0 0 0
694 1 17.48735204517402 13.299791248886361 3.351778709956164 0 0 0
695 1 18.883275036815444 13.28428812211904 3.4098940325731086 0 0 0
697 1 16.78506309746086 14.504270699595295 3.310039889741522 0 0 0
698 1 17.47678145757005 15.712537084976102 3.31165962586713 0 0 0
699 1 18.866052446480875 15.712634129163257 3.369587081761035 0 0 0
701 1 16.785434479426 16.92054749542108 3.2935922639369037 0 0 0
702 1 17.4883877869738 18.123680110097308 3.297670561709673 0 0 0
703 1 18.881355989148464 18.127000930552978 3.3344651754801315 0 0 0
700 1 19.56159621795181 14.506579458687776 3.4414143683717664 0 0 0
704 1 19.568806287251697 16.91837633198639 3.3792051411044395 0 0 0
862 1 21.69011120528953 13.275635294218162 3.3774868621016623 0 0 0
863 1 23.02673771186558 13.27155657496046 4.230026649701554 0 0 0
865 1 20.92713161657471 14.558942936921351 3.5263188207600282 0 0 0
866 1 21.648802568396942 15.72905280344262 3.542748958433363 0 0 0
867 1 23.025133054815033 15.754679885040368 3.595459710461884 0 0 0
868 1 23.759349517171085 14.4482340209527 3.463003308915781 0 0 0
869 1 20.957733758045872 16.934892415584773 3.465703762627815 0 0 0
870 1 21.67270352986269 18.13018015704155 3.492137655629015 0 0 0
871 1 23.041700435478756 18.102024974643875 3.5767037892136324 0 0 0
872 1 23.745164437158312 16.922983404946372 3.6576016951729766 0 0 0
8175 3 21.89982225754412 13.32424128666476 2.3060099245576504 0 0 0
8177 3 23.738484024510043 14.30938518720138 2.380733000168564 0 0 0
4242 2 6.234056197269494 25.441914273627106 6.578970483684456 0 0 0
34 1 0.6676150305382534 20.622352042335066 3.4496654297146723 0 0 0
35 1 2.028029580644806 20.683781604716764 3.54987552462998 0 0 0
36 1 2.8272708371762856 19.369873957476223 3.505689201545908 0 0 0
8710 3 24.635244899327116 20.34369182129232 7.776909397857638 0 0 0
38 1 0.6546377400126308 23.03563096528566 3.3886822876771245 0 0 0
39 1 2.044168563933332 23.04961252728925 3.42629600619304 0 0 0
40 1 2.7388853165183615 21.852446286672407 3.530716769977505 0 0 0
43 1 2.047320628619231 25.450732965946802 3.334723681874621 0 0 0
210 1 4.827179212983152 25.431833203171806 3.369131174531631 0 0 0
4747 2 20.31276774849425 25.365255240846537 6.603350249632718 0 0 0
44 1 2.745138366744551 24.24701647661228 3.3732278677153857 0 0 0
201 1 4.160636445802287 19.38572990285017 4.379249358297723 0 0 0
202 1 4.826028571294276 20.556896719723852 3.5195612916514407 0 0 0
203 1 6.369051539108365 20.579998226885202 3.596776966632777 0 0 0
205 1 4.110054902726037 21.85668718418641 3.555324845969413 0 0 0
206 1 4.8342709680924045 23.01783124514339 3.4633797535528186 0 0 0
207 1 6.2311924254579125 22.99415027778634 3.4590466429107223 0 0 0
209 1 4.137662562455766 24.22644876422791 3.387881000091586 0 0 0
4744 2 21.022782216159285 21.718949986185095 6.559691909001439 0 0 0
211 1 6.216520900326795 25.405434331353593 3.4072041672451534 0 0 0
8065 3 2.9999706005418263 19.657869081311922 2.4451356596599707 0 0 0
8078 3 5.016828050357248 20.27601421098315 2.459087778308166 0 0 0
204 1 7.021183284247752 19.370270565697442 3.6298857262576734 0 0 0
208 1 6.965936140080677 21.80786993353833 3.5455012369194914 0 0 0
212 1 6.925904592850209 24.20625693607412 3.4240386618577467 0 0 0
369 1 8.388245768006028 19.300979642439184 3.638483897737018 0 0 0
370 1 9.144609400656446 20.557010692224264 3.5504574844516803 0 0 0
371 1 10.49358882089337 20.5548135803973 4.4054188830665 0 0 0
372 1 11.184079439729558 19.390882077709858 3.5420605839439 0 0 0
373 1 8.330609201150846 21.866392738863702 3.5875181826907827 0 0 0
374 1 9.03370804844717 23.03060089649486 3.5487532480180715 0 0 0
375 1 10.403579064329733 23.010452095157117 3.5818351504925343 0 0 0
376 1 11.124494899202752 21.71876353605878 3.5203049770307286 0 0 0
377 1 8.321072763193849 24.21678358295215 3.469736720227622 0 0 0
378 1 9.02768708417364 25.414665838691537 3.4907183931005417 0 0 0
379 1 10.410154962755742 25.348184188338593 3.5180574567605944 0 0 0
380 1 11.13015390442842 24.16963311685133 3.55106637688259 0 0 0
537 1 12.663275906476379 19.347509339939492 3.5683553495140763 0 0 0
541 1 12.666477429777437 21.737785493216904 3.564070127376689 0 0 0
545 1 12.513260850468793 24.101469186386193 3.5292829931322056 0 0 0
8108 3 9.289299920761996 20.828349953555076 2.4824743051225098 0 0 0
8109 3 10.840737946462026 19.384059255058073 2.4832256297843855 0 0 0
8110 3 11.289944455260375 21.441298995994885 2.45440352527841 0 0 0
538 1 13.331954871257459 20.541432277345024 3.528227202109447 0 0 0
539 1 14.714446127969968 20.538726105050298 3.407651678238639 0 0 0
540 1 15.399431467341612 19.329390662826352 3.3471026157978057 0 0 0
542 1 13.282565929603892 22.955010809001422 3.516594483953989 0 0 0
543 1 14.67969230623145 22.954789183780065 3.4711528658021953 0 0 0
544 1 15.392367626916121 21.752543810747195 3.394463212447561 0 0 0
4579 2 16.08664961119661 25.400166149845237 6.636784603267956 0 0 0
547 1 14.707469519805343 25.319305765954997 3.769956458619045 0 0 0
548 1 15.39052019844567 24.141937810428463 3.6010091018320907 0 0 0
705 1 16.79042603466852 19.327370597177893 3.310112524625036 0 0 0
706 1 17.485568032935074 20.53242250433256 3.346264424444078 0 0 0
707 1 18.877571210893393 20.524769276475794 3.398194435451048 0 0 0
709 1 16.78611972420249 21.737065904358662 3.389014615065156 0 0 0
710 1 17.485120493284104 22.936926007318807 3.4996645525367187 0 0 0
711 1 18.855109454675706 22.897284363211075 3.5607491516100014 0 0 0
713 1 16.763672175033413 24.098890627770285 3.583186093903667 0 0 0
4748 2 21.044583063274064 24.177526978601513 5.930339128905858 0 0 0
4904 2 25.16079488046495 16.905780993632195 6.174295208053728 0 0 0
4900 2 25.15233043292821 14.54722112451721 6.222879906664446 0 0 0
1045 1 25.18776012552097 21.840360576477536 3.584688243847916 0 0 0
708 1 19.589810141981364 19.327802683011758 3.3792090191233664 0 0 0
712 1 19.569320905504146 21.726597548874437 3.514799802244571 0 0 0
716 1 19.660041969064398 24.225409022006943 3.604956444450009 0 0 0
873 1 20.987944964177625 19.338882304768585 3.454606386440503 0 0 0
874 1 21.67928468962172 20.54932705550701 3.545038885687694 0 0 0
875 1 23.052829788275247 20.649849346859067 3.5840030692056333 0 0 0
876 1 23.815846577434467 19.377799313017338 3.403739860288899 0 0 0
877 1 20.93846157513181 21.696238462014453 3.5716483636412626 0 0 0
878 1 21.719588454128413 23.02313035178862 3.5226577812367164 0 0 0
879 1 23.183008735735758 23.017226836664577 3.639695233091368 0 0 0
880 1 23.812455902412434 21.807752803511647 3.62726075572951 0 0 0
881 1 21.044036042788946 24.166924054932085 4.322972472251302 0 0 0
882 1 21.7035103210004 25.34829183475088 3.45174760084636 0 0 0
883 1 23.196621055188032 25.40078514842475 3.5898387212615495 0 0 0
884 1 23.862127636265942 24.206341064651355 3.6071537994724765 0 0 0
8157 3 19.68997610167573 24.083799875680207 2.504879538818871 0 0 0
8178 3 24.016390663380296 19.365567992553732 2.3300447406349725 0 0 0
8179 3 21.457754981511666 22.991628657955275 2.4440511777089795 0 0 0
8180 3 21.553656828027545 25.120620015870067 2.394839077111764 0 0 0
4054 2 2.0871977376020237 13.329289700183311 6.686516995595225 0 0 0
4055 2 3.4799302541587136 13.310548438992999 6.645747253046767 0 0 0
4057 2 1.4032830301141277 14.547685139005058 6.658507947302308 0 0 0
4058 2 2.087590371881502 15.763118705554845 6.614248584043123 0 0 0
4059 2 3.479885781692318 15.736230601256407 6.560343635523844 0 0 0
4060 2 4.161339465064841 14.519767939139324 6.562334891868015 0 0 0
4061 2 1.3785063203271204 16.968990183541212 6.583377283608854 0 0 0
4062 2 2.0110393870626435 18.182439766617403 6.544220854507167 0 0 0
4063 2 3.487980387103815 18.19119119915838 6.752197255194596 0 0 0
4064 2 4.202740093785434 16.90021669746192 6.518768155641098 0 0 0
4222 2 6.215947773687555 13.308837446654554 6.5035890305327415 0 0 0
4225 2 5.552239933745538 14.512169786820786 6.484295722820888 0 0 0