#graphene 10x10, a=1.4, lx=24, ly=42
9050 atoms

3 atom types

0 100.8 xlo xhi
0 101.845 ylo yhi
-80 80 zlo zhi

Masses

1 12.0107
2 12.0107
3 1.00784

Atoms

1 1 0.000000 0.000000 3.350000 
2 1 0.700000 1.212440 3.350000 
3 1 2.100000 1.212440 3.350000 
4 1 2.800000 0.000000 3.350000 
5 1 0.000000 2.424870 3.350000 
6 1 0.700000 3.637310 3.350000 
7 1 2.100000 3.637310 3.350000 
8 1 2.800000 2.424870 3.350000 
9 1 0.000000 4.849740 3.350000 
10 1 0.700000 6.062180 3.350000 
11 1 2.100000 6.062180 3.350000 
12 1 2.800000 4.849740 3.350000 
13 1 0.000000 7.274610 3.350000 
14 1 0.700000 8.487050 3.350000 
15 1 2.100000 8.487050 3.350000 
16 1 2.800000 7.274610 3.350000 
17 1 0.000000 9.699480 3.350000 
18 1 0.700000 10.911900 3.350000 
19 1 2.100000 10.911900 3.350000 
20 1 2.800000 9.699480 3.350000 
21 1 0.000000 12.124400 3.350000 
22 1 0.700000 13.336800 3.350000 
23 1 2.100000 13.336800 3.350000 
24 1 2.800000 12.124400 3.350000 
25 1 0.000000 14.549200 3.350000 
26 1 0.700000 15.761700 3.350000 
27 1 2.100000 15.761700 3.350000 
28 1 2.800000 14.549200 3.350000 
29 1 0.000000 16.974100 3.350000 
30 1 0.700000 18.186500 3.350000 
31 1 2.100000 18.186500 3.350000 
32 1 2.800000 16.974100 3.350000 
33 1 0.000000 19.399000 3.350000 
34 1 0.700000 20.611400 3.350000 
35 1 2.100000 20.611400 3.350000 
36 1 2.800000 19.399000 3.350000 
37 1 0.000000 21.823800 3.350000 
38 1 0.700000 23.036300 3.350000 
39 1 2.100000 23.036300 3.350000 
40 1 2.800000 21.823800 3.350000 
41 1 0.000000 24.248700 3.350000 
42 1 0.700000 25.461100 3.350000 
43 1 2.100000 25.461100 3.350000 
44 1 2.800000 24.248700 3.350000 
45 1 0.000000 26.673600 3.350000 
46 1 0.700000 27.886000 3.350000 
47 1 2.100000 27.886000 3.350000 
48 1 2.800000 26.673600 3.350000 
49 1 0.000000 29.098500 3.350000 
50 1 0.700000 30.310900 3.350000 
51 1 2.100000 30.310900 3.350000 
52 1 2.800000 29.098500 3.350000 
53 1 0.000000 31.523300 3.350000 
54 1 0.700000 32.735800 3.350000 
55 1 2.100000 32.735800 3.350000 
56 1 2.800000 31.523300 3.350000 
57 1 0.000000 33.948200 3.350000 
58 1 0.700000 35.160600 3.350000 
59 1 2.100000 35.160600 3.350000 
60 1 2.800000 33.948200 3.350000 
61 1 0.000000 36.373100 3.350000 
62 1 0.700000 37.585500 3.350000 
63 1 2.100000 37.585500 3.350000 
64 1 2.800000 36.373100 3.350000 
65 1 0.000000 38.797900 3.350000 
66 1 0.700000 40.010400 3.350000 
67 1 2.100000 40.010400 3.350000 
68 1 2.800000 38.797900 3.350000 
69 1 0.000000 41.222800 3.350000 
70 1 0.700000 42.435200 3.350000 
71 1 2.100000 42.435200 3.350000 
72 1 2.800000 41.222800 3.350000 
73 1 0.000000 43.647700 3.350000 
74 1 0.700000 44.860100 3.350000 
75 1 2.100000 44.860100 3.350000 
76 1 2.800000 43.647700 3.350000 
77 1 0.000000 46.072600 3.350000 
78 1 0.700000 47.285000 3.350000 
79 1 2.100000 47.285000 3.350000 
80 1 2.800000 46.072600 3.350000 
81 1 0.000000 48.497400 3.350000 
82 1 0.700000 49.709900 3.350000 
83 1 2.100000 49.709900 3.350000 
84 1 2.800000 48.497400 3.350000 
85 1 0.000000 50.922300 3.350000 
86 1 0.700000 52.134700 3.350000 
87 1 2.100000 52.134700 3.350000 
88 1 2.800000 50.922300 3.350000 
89 1 0.000000 53.347200 3.350000 
90 1 0.700000 54.559600 3.350000 
91 1 2.100000 54.559600 3.350000 
92 1 2.800000 53.347200 3.350000 
93 1 0.000000 55.772000 3.350000 
94 1 0.700000 56.984500 3.350000 
95 1 2.100000 56.984500 3.350000 
96 1 2.800000 55.772000 3.350000 
97 1 0.000000 58.196900 3.350000 
98 1 0.700000 59.409300 3.350000 
99 1 2.100000 59.409300 3.350000 
100 1 2.800000 58.196900 3.350000 
101 1 0.000000 60.621800 3.350000 
102 1 0.700000 61.834200 3.350000 
103 1 2.100000 61.834200 3.350000 
104 1 2.800000 60.621800 3.350000 
105 1 0.000000 63.046600 3.350000 
106 1 0.700000 64.259100 3.350000 
107 1 2.100000 64.259100 3.350000 
108 1 2.800000 63.046600 3.350000 
109 1 0.000000 65.471500 3.350000 
110 1 0.700000 66.684000 3.350000 
111 1 2.100000 66.684000 3.350000 
112 1 2.800000 65.471500 3.350000 
113 1 0.000000 67.896400 3.350000 
114 1 0.700000 69.108800 3.350000 
115 1 2.100000 69.108800 3.350000 
116 1 2.800000 67.896400 3.350000 
117 1 0.000000 70.321300 3.350000 
118 1 0.700000 71.533700 3.350000 
119 1 2.100000 71.533700 3.350000 
120 1 2.800000 70.321300 3.350000 
121 1 0.000000 72.746100 3.350000 
122 1 0.700000 73.958600 3.350000 
123 1 2.100000 73.958600 3.350000 
124 1 2.800000 72.746100 3.350000 
125 1 0.000000 75.171000 3.350000 
126 1 0.700000 76.383400 3.350000 
127 1 2.100000 76.383400 3.350000 
128 1 2.800000 75.171000 3.350000 
129 1 0.000000 77.595900 3.350000 
130 1 0.700000 78.808300 3.350000 
131 1 2.100000 78.808300 3.350000 
132 1 2.800000 77.595900 3.350000 
133 1 0.000000 80.020700 3.350000 
134 1 0.700000 81.233200 3.350000 
135 1 2.100000 81.233200 3.350000 
136 1 2.800000 80.020700 3.350000 
137 1 0.000000 82.445600 3.350000 
138 1 0.700000 83.658100 3.350000 
139 1 2.100000 83.658100 3.350000 
140 1 2.800000 82.445600 3.350000 
141 1 0.000000 84.870500 3.350000 
142 1 0.700000 86.082900 3.350000 
143 1 2.100000 86.082900 3.350000 
144 1 2.800000 84.870500 3.350000 
145 1 0.000000 87.295400 3.350000 
146 1 0.700000 88.507800 3.350000 
147 1 2.100000 88.507800 3.350000 
148 1 2.800000 87.295400 3.350000 
149 1 0.000000 89.720200 3.350000 
150 1 0.700000 90.932700 3.350000 
151 1 2.100000 90.932700 3.350000 
152 1 2.800000 89.720200 3.350000 
153 1 0.000000 92.145100 3.350000 
154 1 0.700000 93.357500 3.350000 
155 1 2.100000 93.357500 3.350000 
156 1 2.800000 92.145100 3.350000 
157 1 0.000000 94.570000 3.350000 
158 1 0.700000 95.782400 3.350000 
159 1 2.100000 95.782400 3.350000 
160 1 2.800000 94.570000 3.350000 
161 1 0.000000 96.994800 3.350000 
162 1 0.700000 98.207300 3.350000 
163 1 2.100000 98.207300 3.350000 
164 1 2.800000 96.994800 3.350000 
165 1 0.000000 99.419700 3.350000 
166 1 0.700000 100.632000 3.350000 
167 1 2.100000 100.632000 3.350000 
168 1 2.800000 99.419700 3.350000 
169 1 4.200000 0.000000 3.350000 
170 1 4.900000 1.212440 3.350000 
171 1 6.300000 1.212440 3.350000 
172 1 7.000000 0.000000 3.350000 
173 1 4.200000 2.424870 3.350000 
174 1 4.900000 3.637310 3.350000 
175 1 6.300000 3.637310 3.350000 
176 1 7.000000 2.424870 3.350000 
177 1 4.200000 4.849740 3.350000 
178 1 4.900000 6.062180 3.350000 
179 1 6.300000 6.062180 3.350000 
180 1 7.000000 4.849740 3.350000 
181 1 4.200000 7.274610 3.350000 
182 1 4.900000 8.487050 3.350000 
183 1 6.300000 8.487050 3.350000 
184 1 7.000000 7.274610 3.350000 
185 1 4.200000 9.699480 3.350000 
186 1 4.900000 10.911900 3.350000 
187 1 6.300000 10.911900 3.350000 
188 1 7.000000 9.699480 3.350000 
189 1 4.200000 12.124400 3.350000 
190 1 4.900000 13.336800 3.350000 
191 1 6.300000 13.336800 3.350000 
192 1 7.000000 12.124400 3.350000 
193 1 4.200000 14.549200 3.350000 
194 1 4.900000 15.761700 3.350000 
195 1 6.300000 15.761700 3.350000 
196 1 7.000000 14.549200 3.350000 
197 1 4.200000 16.974100 3.350000 
198 1 4.900000 18.186500 3.350000 
199 1 6.300000 18.186500 3.350000 
200 1 7.000000 16.974100 3.350000 
201 1 4.200000 19.399000 3.350000 
202 1 4.900000 20.611400 3.350000 
203 1 6.300000 20.611400 3.350000 
204 1 7.000000 19.399000 3.350000 
205 1 4.200000 21.823800 3.350000 
206 1 4.900000 23.036300 3.350000 
207 1 6.300000 23.036300 3.350000 
208 1 7.000000 21.823800 3.350000 
209 1 4.200000 24.248700 3.350000 
210 1 4.900000 25.461100 3.350000 
211 1 6.300000 25.461100 3.350000 
212 1 7.000000 24.248700 3.350000 
213 1 4.200000 26.673600 3.350000 
214 1 4.900000 27.886000 3.350000 
215 1 6.300000 27.886000 3.350000 
216 1 7.000000 26.673600 3.350000 
217 1 4.200000 29.098500 3.350000 
218 1 4.900000 30.310900 3.350000 
219 1 6.300000 30.310900 3.350000 
220 1 7.000000 29.098500 3.350000 
221 1 4.200000 31.523300 3.350000 
222 1 4.900000 32.735800 3.350000 
223 1 6.300000 32.735800 3.350000 
224 1 7.000000 31.523300 3.350000 
225 1 4.200000 33.948200 3.350000 
226 1 4.900000 35.160600 3.350000 
227 1 6.300000 35.160600 3.350000 
228 1 7.000000 33.948200 3.350000 
229 1 4.200000 36.373100 3.350000 
230 1 4.900000 37.585500 3.350000 
231 1 6.300000 37.585500 3.350000 
232 1 7.000000 36.373100 3.350000 
233 1 4.200000 38.797900 3.350000 
234 1 4.900000 40.010400 3.350000 
235 1 6.300000 40.010400 3.350000 
236 1 7.000000 38.797900 3.350000 
237 1 4.200000 41.222800 3.350000 
238 1 4.900000 42.435200 3.350000 
239 1 6.300000 42.435200 3.350000 
240 1 7.000000 41.222800 3.350000 
241 1 4.200000 43.647700 3.350000 
242 1 4.900000 44.860100 3.350000 
243 1 6.300000 44.860100 3.350000 
244 1 7.000000 43.647700 3.350000 
245 1 4.200000 46.072600 3.350000 
246 1 4.900000 47.285000 3.350000 
247 1 6.300000 47.285000 3.350000 
248 1 7.000000 46.072600 3.350000 
249 1 4.200000 48.497400 3.350000 
250 1 4.900000 49.709900 3.350000 
251 1 6.300000 49.709900 3.350000 
252 1 7.000000 48.497400 3.350000 
253 1 4.200000 50.922300 3.350000 
254 1 4.900000 52.134700 3.350000 
255 1 6.300000 52.134700 3.350000 
256 1 7.000000 50.922300 3.350000 
257 1 4.200000 53.347200 3.350000 
258 1 4.900000 54.559600 3.350000 
259 1 6.300000 54.559600 3.350000 
260 1 7.000000 53.347200 3.350000 
261 1 4.200000 55.772000 3.350000 
262 1 4.900000 56.984500 3.350000 
263 1 6.300000 56.984500 3.350000 
264 1 7.000000 55.772000 3.350000 
265 1 4.200000 58.196900 3.350000 
266 1 4.900000 59.409300 3.350000 
267 1 6.300000 59.409300 3.350000 
268 1 7.000000 58.196900 3.350000 
269 1 4.200000 60.621800 3.350000 
270 1 4.900000 61.834200 3.350000 
271 1 6.300000 61.834200 3.350000 
272 1 7.000000 60.621800 3.350000 
273 1 4.200000 63.046600 3.350000 
274 1 4.900000 64.259100 3.350000 
275 1 6.300000 64.259100 3.350000 
276 1 7.000000 63.046600 3.350000 
277 1 4.200000 65.471500 3.350000 
278 1 4.900000 66.684000 3.350000 
279 1 6.300000 66.684000 3.350000 
280 1 7.000000 65.471500 3.350000 
281 1 4.200000 67.896400 3.350000 
282 1 4.900000 69.108800 3.350000 
283 1 6.300000 69.108800 3.350000 
284 1 7.000000 67.896400 3.350000 
285 1 4.200000 70.321300 3.350000 
286 1 4.900000 71.533700 3.350000 
287 1 6.300000 71.533700 3.350000 
288 1 7.000000 70.321300 3.350000 
289 1 4.200000 72.746100 3.350000 
290 1 4.900000 73.958600 3.350000 
291 1 6.300000 73.958600 3.350000 
292 1 7.000000 72.746100 3.350000 
293 1 4.200000 75.171000 3.350000 
294 1 4.900000 76.383400 3.350000 
295 1 6.300000 76.383400 3.350000 
296 1 7.000000 75.171000 3.350000 
297 1 4.200000 77.595900 3.350000 
298 1 4.900000 78.808300 3.350000 
299 1 6.300000 78.808300 3.350000 
300 1 7.000000 77.595900 3.350000 
301 1 4.200000 80.020700 3.350000 
302 1 4.900000 81.233200 3.350000 
303 1 6.300000 81.233200 3.350000 
304 1 7.000000 80.020700 3.350000 
305 1 4.200000 82.445600 3.350000 
306 1 4.900000 83.658100 3.350000 
307 1 6.300000 83.658100 3.350000 
308 1 7.000000 82.445600 3.350000 
309 1 4.200000 84.870500 3.350000 
310 1 4.900000 86.082900 3.350000 
311 1 6.300000 86.082900 3.350000 
312 1 7.000000 84.870500 3.350000 
313 1 4.200000 87.295400 3.350000 
314 1 4.900000 88.507800 3.350000 
315 1 6.300000 88.507800 3.350000 
316 1 7.000000 87.295400 3.350000 
317 1 4.200000 89.720200 3.350000 
318 1 4.900000 90.932700 3.350000 
319 1 6.300000 90.932700 3.350000 
320 1 7.000000 89.720200 3.350000 
321 1 4.200000 92.145100 3.350000 
322 1 4.900000 93.357500 3.350000 
323 1 6.300000 93.357500 3.350000 
324 1 7.000000 92.145100 3.350000 
325 1 4.200000 94.570000 3.350000 
326 1 4.900000 95.782400 3.350000 
327 1 6.300000 95.782400 3.350000 
328 1 7.000000 94.570000 3.350000 
329 1 4.200000 96.994800 3.350000 
330 1 4.900000 98.207300 3.350000 
331 1 6.300000 98.207300 3.350000 
332 1 7.000000 96.994800 3.350000 
333 1 4.200000 99.419700 3.350000 
334 1 4.900000 100.632000 3.350000 
335 1 6.300000 100.632000 3.350000 
336 1 7.000000 99.419700 3.350000 
337 1 8.400000 0.000000 3.350000 
338 1 9.100000 1.212440 3.350000 
339 1 10.500000 1.212440 3.350000 
340 1 11.200000 0.000000 3.350000 
341 1 8.400000 2.424870 3.350000 
342 1 9.100000 3.637310 3.350000 
343 1 10.500000 3.637310 3.350000 
344 1 11.200000 2.424870 3.350000 
345 1 8.400000 4.849740 3.350000 
346 1 9.100000 6.062180 3.350000 
347 1 10.500000 6.062180 3.350000 
348 1 11.200000 4.849740 3.350000 
349 1 8.400000 7.274610 3.350000 
350 1 9.100000 8.487050 3.350000 
351 1 10.500000 8.487050 3.350000 
352 1 11.200000 7.274610 3.350000 
353 1 8.400000 9.699480 3.350000 
354 1 9.100000 10.911900 3.350000 
355 1 10.500000 10.911900 3.350000 
356 1 11.200000 9.699480 3.350000 
357 1 8.400000 12.124400 3.350000 
358 1 9.100000 13.336800 3.350000 
359 1 10.500000 13.336800 3.350000 
360 1 11.200000 12.124400 3.350000 
361 1 8.400000 14.549200 3.350000 
362 1 9.100000 15.761700 3.350000 
363 1 10.500000 15.761700 3.350000 
364 1 11.200000 14.549200 3.350000 
365 1 8.400000 16.974100 3.350000 
366 1 9.100000 18.186500 3.350000 
367 1 10.500000 18.186500 3.350000 
368 1 11.200000 16.974100 3.350000 
369 1 8.400000 19.399000 3.350000 
370 1 9.100000 20.611400 3.350000 
371 1 10.500000 20.611400 3.350000 
372 1 11.200000 19.399000 3.350000 
373 1 8.400000 21.823800 3.350000 
374 1 9.100000 23.036300 3.350000 
375 1 10.500000 23.036300 3.350000 
376 1 11.200000 21.823800 3.350000 
377 1 8.400000 24.248700 3.350000 
378 1 9.100000 25.461100 3.350000 
379 1 10.500000 25.461100 3.350000 
380 1 11.200000 24.248700 3.350000 
381 1 8.400000 26.673600 3.350000 
382 1 9.100000 27.886000 3.350000 
383 1 10.500000 27.886000 3.350000 
384 1 11.200000 26.673600 3.350000 
385 1 8.400000 29.098500 3.350000 
386 1 9.100000 30.310900 3.350000 
387 1 10.500000 30.310900 3.350000 
388 1 11.200000 29.098500 3.350000 
389 1 8.400000 31.523300 3.350000 
390 1 9.100000 32.735800 3.350000 
391 1 10.500000 32.735800 3.350000 
392 1 11.200000 31.523300 3.350000 
393 1 8.400000 33.948200 3.350000 
394 1 9.100000 35.160600 3.350000 
395 1 10.500000 35.160600 3.350000 
396 1 11.200000 33.948200 3.350000 
397 1 8.400000 36.373100 3.350000 
398 1 9.100000 37.585500 3.350000 
399 1 10.500000 37.585500 3.350000 
400 1 11.200000 36.373100 3.350000 
401 1 8.400000 38.797900 3.350000 
402 1 9.100000 40.010400 3.350000 
403 1 10.500000 40.010400 3.350000 
404 1 11.200000 38.797900 3.350000 
405 1 8.400000 41.222800 3.350000 
406 1 9.100000 42.435200 3.350000 
407 1 10.500000 42.435200 3.350000 
408 1 11.200000 41.222800 3.350000 
409 1 8.400000 43.647700 3.350000 
410 1 9.100000 44.860100 3.350000 
411 1 10.500000 44.860100 3.350000 
412 1 11.200000 43.647700 3.350000 
413 1 8.400000 46.072600 3.350000 
414 1 9.100000 47.285000 3.350000 
415 1 10.500000 47.285000 3.350000 
416 1 11.200000 46.072600 3.350000 
417 1 8.400000 48.497400 3.350000 
418 1 9.100000 49.709900 3.350000 
419 1 10.500000 49.709900 3.350000 
420 1 11.200000 48.497400 3.350000 
421 1 8.400000 50.922300 3.350000 
422 1 9.100000 52.134700 3.350000 
423 1 10.500000 52.134700 3.350000 
424 1 11.200000 50.922300 3.350000 
425 1 8.400000 53.347200 3.350000 
426 1 9.100000 54.559600 3.350000 
427 1 10.500000 54.559600 3.350000 
428 1 11.200000 53.347200 3.350000 
429 1 8.400000 55.772000 3.350000 
430 1 9.100000 56.984500 3.350000 
431 1 10.500000 56.984500 3.350000 
432 1 11.200000 55.772000 3.350000 
433 1 8.400000 58.196900 3.350000 
434 1 9.100000 59.409300 3.350000 
435 1 10.500000 59.409300 3.350000 
436 1 11.200000 58.196900 3.350000 
437 1 8.400000 60.621800 3.350000 
438 1 9.100000 61.834200 3.350000 
439 1 10.500000 61.834200 3.350000 
440 1 11.200000 60.621800 3.350000 
441 1 8.400000 63.046600 3.350000 
442 1 9.100000 64.259100 3.350000 
443 1 10.500000 64.259100 3.350000 
444 1 11.200000 63.046600 3.350000 
445 1 8.400000 65.471500 3.350000 
446 1 9.100000 66.684000 3.350000 
447 1 10.500000 66.684000 3.350000 
448 1 11.200000 65.471500 3.350000 
449 1 8.400000 67.896400 3.350000 
450 1 9.100000 69.108800 3.350000 
451 1 10.500000 69.108800 3.350000 
452 1 11.200000 67.896400 3.350000 
453 1 8.400000 70.321300 3.350000 
454 1 9.100000 71.533700 3.350000 
455 1 10.500000 71.533700 3.350000 
456 1 11.200000 70.321300 3.350000 
457 1 8.400000 72.746100 3.350000 
458 1 9.100000 73.958600 3.350000 
459 1 10.500000 73.958600 3.350000 
460 1 11.200000 72.746100 3.350000 
461 1 8.400000 75.171000 3.350000 
462 1 9.100000 76.383400 3.350000 
463 1 10.500000 76.383400 3.350000 
464 1 11.200000 75.171000 3.350000 
465 1 8.400000 77.595900 3.350000 
466 1 9.100000 78.808300 3.350000 
467 1 10.500000 78.808300 3.350000 
468 1 11.200000 77.595900 3.350000 
469 1 8.400000 80.020700 3.350000 
470 1 9.100000 81.233200 3.350000 
471 1 10.500000 81.233200 3.350000 
472 1 11.200000 80.020700 3.350000 
473 1 8.400000 82.445600 3.350000 
474 1 9.100000 83.658100 3.350000 
475 1 10.500000 83.658100 3.350000 
476 1 11.200000 82.445600 3.350000 
477 1 8.400000 84.870500 3.350000 
478 1 9.100000 86.082900 3.350000 
479 1 10.500000 86.082900 3.350000 
480 1 11.200000 84.870500 3.350000 
481 1 8.400000 87.295400 3.350000 
482 1 9.100000 88.507800 3.350000 
483 1 10.500000 88.507800 3.350000 
484 1 11.200000 87.295400 3.350000 
485 1 8.400000 89.720200 3.350000 
486 1 9.100000 90.932700 3.350000 
487 1 10.500000 90.932700 3.350000 
488 1 11.200000 89.720200 3.350000 
489 1 8.400000 92.145100 3.350000 
490 1 9.100000 93.357500 3.350000 
491 1 10.500000 93.357500 3.350000 
492 1 11.200000 92.145100 3.350000 
493 1 8.400000 94.570000 3.350000 
494 1 9.100000 95.782400 3.350000 
495 1 10.500000 95.782400 3.350000 
496 1 11.200000 94.570000 3.350000 
497 1 8.400000 96.994800 3.350000 
498 1 9.100000 98.207300 3.350000 
499 1 10.500000 98.207300 3.350000 
500 1 11.200000 96.994800 3.350000 
501 1 8.400000 99.419700 3.350000 
502 1 9.100000 100.632000 3.350000 
503 1 10.500000 100.632000 3.350000 
504 1 11.200000 99.419700 3.350000 
505 1 12.600000 0.000000 3.350000 
506 1 13.300000 1.212440 3.350000 
507 1 14.700000 1.212440 3.350000 
508 1 15.400000 0.000000 3.350000 
509 1 12.600000 2.424870 3.350000 
510 1 13.300000 3.637310 3.350000 
511 1 14.700000 3.637310 3.350000 
512 1 15.400000 2.424870 3.350000 
513 1 12.600000 4.849740 3.350000 
514 1 13.300000 6.062180 3.350000 
515 1 14.700000 6.062180 3.350000 
516 1 15.400000 4.849740 3.350000 
517 1 12.600000 7.274610 3.350000 
518 1 13.300000 8.487050 3.350000 
519 1 14.700000 8.487050 3.350000 
520 1 15.400000 7.274610 3.350000 
521 1 12.600000 9.699480 3.350000 
522 1 13.300000 10.911900 3.350000 
523 1 14.700000 10.911900 3.350000 
524 1 15.400000 9.699480 3.350000 
525 1 12.600000 12.124400 3.350000 
526 1 13.300000 13.336800 3.350000 
527 1 14.700000 13.336800 3.350000 
528 1 15.400000 12.124400 3.350000 
529 1 12.600000 14.549200 3.350000 
530 1 13.300000 15.761700 3.350000 
531 1 14.700000 15.761700 3.350000 
532 1 15.400000 14.549200 3.350000 
533 1 12.600000 16.974100 3.350000 
534 1 13.300000 18.186500 3.350000 
535 1 14.700000 18.186500 3.350000 
536 1 15.400000 16.974100 3.350000 
537 1 12.600000 19.399000 3.350000 
538 1 13.300000 20.611400 3.350000 
539 1 14.700000 20.611400 3.350000 
540 1 15.400000 19.399000 3.350000 
541 1 12.600000 21.823800 3.350000 
542 1 13.300000 23.036300 3.350000 
543 1 14.700000 23.036300 3.350000 
544 1 15.400000 21.823800 3.350000 
545 1 12.600000 24.248700 3.350000 
546 1 13.300000 25.461100 3.350000 
547 1 14.700000 25.461100 3.350000 
548 1 15.400000 24.248700 3.350000 
549 1 12.600000 26.673600 3.350000 
550 1 13.300000 27.886000 3.350000 
551 1 14.700000 27.886000 3.350000 
552 1 15.400000 26.673600 3.350000 
553 1 12.600000 29.098500 3.350000 
554 1 13.300000 30.310900 3.350000 
555 1 14.700000 30.310900 3.350000 
556 1 15.400000 29.098500 3.350000 
557 1 12.600000 31.523300 3.350000 
558 1 13.300000 32.735800 3.350000 
559 1 14.700000 32.735800 3.350000 
560 1 15.400000 31.523300 3.350000 
561 1 12.600000 33.948200 3.350000 
562 1 13.300000 35.160600 3.350000 
563 1 14.700000 35.160600 3.350000 
564 1 15.400000 33.948200 3.350000 
565 1 12.600000 36.373100 3.350000 
566 1 13.300000 37.585500 3.350000 
567 1 14.700000 37.585500 3.350000 
568 1 15.400000 36.373100 3.350000 
569 1 12.600000 38.797900 3.350000 
570 1 13.300000 40.010400 3.350000 
571 1 14.700000 40.010400 3.350000 
572 1 15.400000 38.797900 3.350000 
573 1 12.600000 41.222800 3.350000 
574 1 13.300000 42.435200 3.350000 
575 1 14.700000 42.435200 3.350000 
576 1 15.400000 41.222800 3.350000 
577 1 12.600000 43.647700 3.350000 
578 1 13.300000 44.860100 3.350000 
579 1 14.700000 44.860100 3.350000 
580 1 15.400000 43.647700 3.350000 
581 1 12.600000 46.072600 3.350000 
582 1 13.300000 47.285000 3.350000 
583 1 14.700000 47.285000 3.350000 
584 1 15.400000 46.072600 3.350000 
585 1 12.600000 48.497400 3.350000 
586 1 13.300000 49.709900 3.350000 
587 1 14.700000 49.709900 3.350000 
588 1 15.400000 48.497400 3.350000 
589 1 12.600000 50.922300 3.350000 
590 1 13.300000 52.134700 3.350000 
591 1 14.700000 52.134700 3.350000 
592 1 15.400000 50.922300 3.350000 
593 1 12.600000 53.347200 3.350000 
594 1 13.300000 54.559600 3.350000 
595 1 14.700000 54.559600 3.350000 
596 1 15.400000 53.347200 3.350000 
597 1 12.600000 55.772000 3.350000 
598 1 13.300000 56.984500 3.350000 
599 1 14.700000 56.984500 3.350000 
600 1 15.400000 55.772000 3.350000 
601 1 12.600000 58.196900 3.350000 
602 1 13.300000 59.409300 3.350000 
603 1 14.700000 59.409300 3.350000 
604 1 15.400000 58.196900 3.350000 
605 1 12.600000 60.621800 3.350000 
606 1 13.300000 61.834200 3.350000 
607 1 14.700000 61.834200 3.350000 
608 1 15.400000 60.621800 3.350000 
609 1 12.600000 63.046600 3.350000 
610 1 13.300000 64.259100 3.350000 
611 1 14.700000 64.259100 3.350000 
612 1 15.400000 63.046600 3.350000 
613 1 12.600000 65.471500 3.350000 
614 1 13.300000 66.684000 3.350000 
615 1 14.700000 66.684000 3.350000 
616 1 15.400000 65.471500 3.350000 
617 1 12.600000 67.896400 3.350000 
618 1 13.300000 69.108800 3.350000 
619 1 14.700000 69.108800 3.350000 
620 1 15.400000 67.896400 3.350000 
621 1 12.600000 70.321300 3.350000 
622 1 13.300000 71.533700 3.350000 
623 1 14.700000 71.533700 3.350000 
624 1 15.400000 70.321300 3.350000 
625 1 12.600000 72.746100 3.350000 
626 1 13.300000 73.958600 3.350000 
627 1 14.700000 73.958600 3.350000 
628 1 15.400000 72.746100 3.350000 
629 1 12.600000 75.171000 3.350000 
630 1 13.300000 76.383400 3.350000 
631 1 14.700000 76.383400 3.350000 
632 1 15.400000 75.171000 3.350000 
633 1 12.600000 77.595900 3.350000 
634 1 13.300000 78.808300 3.350000 
635 1 14.700000 78.808300 3.350000 
636 1 15.400000 77.595900 3.350000 
637 1 12.600000 80.020700 3.350000 
638 1 13.300000 81.233200 3.350000 
639 1 14.700000 81.233200 3.350000 
640 1 15.400000 80.020700 3.350000 
641 1 12.600000 82.445600 3.350000 
642 1 13.300000 83.658100 3.350000 
643 1 14.700000 83.658100 3.350000 
644 1 15.400000 82.445600 3.350000 
645 1 12.600000 84.870500 3.350000 
646 1 13.300000 86.082900 3.350000 
647 1 14.700000 86.082900 3.350000 
648 1 15.400000 84.870500 3.350000 
649 1 12.600000 87.295400 3.350000 
650 1 13.300000 88.507800 3.350000 
651 1 14.700000 88.507800 3.350000 
652 1 15.400000 87.295400 3.350000 
653 1 12.600000 89.720200 3.350000 
654 1 13.300000 90.932700 3.350000 
655 1 14.700000 90.932700 3.350000 
656 1 15.400000 89.720200 3.350000 
657 1 12.600000 92.145100 3.350000 
658 1 13.300000 93.357500 3.350000 
659 1 14.700000 93.357500 3.350000 
660 1 15.400000 92.145100 3.350000 
661 1 12.600000 94.570000 3.350000 
662 1 13.300000 95.782400 3.350000 
663 1 14.700000 95.782400 3.350000 
664 1 15.400000 94.570000 3.350000 
665 1 12.600000 96.994800 3.350000 
666 1 13.300000 98.207300 3.350000 
667 1 14.700000 98.207300 3.350000 
668 1 15.400000 96.994800 3.350000 
669 1 12.600000 99.419700 3.350000 
670 1 13.300000 100.632000 3.350000 
671 1 14.700000 100.632000 3.350000 
672 1 15.400000 99.419700 3.350000 
673 1 16.800000 0.000000 3.350000 
674 1 17.500000 1.212440 3.350000 
675 1 18.900000 1.212440 3.350000 
676 1 19.600000 0.000000 3.350000 
677 1 16.800000 2.424870 3.350000 
678 1 17.500000 3.637310 3.350000 
679 1 18.900000 3.637310 3.350000 
680 1 19.600000 2.424870 3.350000 
681 1 16.800000 4.849740 3.350000 
682 1 17.500000 6.062180 3.350000 
683 1 18.900000 6.062180 3.350000 
684 1 19.600000 4.849740 3.350000 
685 1 16.800000 7.274610 3.350000 
686 1 17.500000 8.487050 3.350000 
687 1 18.900000 8.487050 3.350000 
688 1 19.600000 7.274610 3.350000 
689 1 16.800000 9.699480 3.350000 
690 1 17.500000 10.911900 3.350000 
691 1 18.900000 10.911900 3.350000 
692 1 19.600000 9.699480 3.350000 
693 1 16.800000 12.124400 3.350000 
694 1 17.500000 13.336800 3.350000 
695 1 18.900000 13.336800 3.350000 
696 1 19.600000 12.124400 3.350000 
697 1 16.800000 14.549200 3.350000 
698 1 17.500000 15.761700 3.350000 
699 1 18.900000 15.761700 3.350000 
700 1 19.600000 14.549200 3.350000 
701 1 16.800000 16.974100 3.350000 
702 1 17.500000 18.186500 3.350000 
703 1 18.900000 18.186500 3.350000 
704 1 19.600000 16.974100 3.350000 
705 1 16.800000 19.399000 3.350000 
706 1 17.500000 20.611400 3.350000 
707 1 18.900000 20.611400 3.350000 
708 1 19.600000 19.399000 3.350000 
709 1 16.800000 21.823800 3.350000 
710 1 17.500000 23.036300 3.350000 
711 1 18.900000 23.036300 3.350000 
712 1 19.600000 21.823800 3.350000 
713 1 16.800000 24.248700 3.350000 
714 1 17.500000 25.461100 3.350000 
715 1 18.900000 25.461100 3.350000 
716 1 19.600000 24.248700 3.350000 
717 1 16.800000 26.673600 3.350000 
718 1 17.500000 27.886000 3.350000 
719 1 18.900000 27.886000 3.350000 
720 1 19.600000 26.673600 3.350000 
721 1 16.800000 29.098500 3.350000 
722 1 17.500000 30.310900 3.350000 
723 1 18.900000 30.310900 3.350000 
724 1 19.600000 29.098500 3.350000 
725 1 16.800000 31.523300 3.350000 
726 1 17.500000 32.735800 3.350000 
727 1 18.900000 32.735800 3.350000 
728 1 19.600000 31.523300 3.350000 
729 1 16.800000 33.948200 3.350000 
730 1 17.500000 35.160600 3.350000 
731 1 18.900000 35.160600 3.350000 
732 1 19.600000 33.948200 3.350000 
733 1 16.800000 36.373100 3.350000 
734 1 17.500000 37.585500 3.350000 
735 1 18.900000 37.585500 3.350000 
736 1 19.600000 36.373100 3.350000 
737 1 16.800000 38.797900 3.350000 
738 1 17.500000 40.010400 3.350000 
739 1 18.900000 40.010400 3.350000 
740 1 19.600000 38.797900 3.350000 
741 1 16.800000 41.222800 3.350000 
742 1 17.500000 42.435200 3.350000 
743 1 18.900000 42.435200 3.350000 
744 1 19.600000 41.222800 3.350000 
745 1 16.800000 43.647700 3.350000 
746 1 17.500000 44.860100 3.350000 
747 1 18.900000 44.860100 3.350000 
748 1 19.600000 43.647700 3.350000 
749 1 16.800000 46.072600 3.350000 
750 1 17.500000 47.285000 3.350000 
751 1 18.900000 47.285000 3.350000 
752 1 19.600000 46.072600 3.350000 
753 1 16.800000 48.497400 3.350000 
754 1 17.500000 49.709900 3.350000 
755 1 18.900000 49.709900 3.350000 
756 1 19.600000 48.497400 3.350000 
757 1 16.800000 50.922300 3.350000 
758 1 17.500000 52.134700 3.350000 
759 1 18.900000 52.134700 3.350000 
760 1 19.600000 50.922300 3.350000 
761 1 16.800000 53.347200 3.350000 
762 1 17.500000 54.559600 3.350000 
763 1 18.900000 54.559600 3.350000 
764 1 19.600000 53.347200 3.350000 
765 1 16.800000 55.772000 3.350000 
766 1 17.500000 56.984500 3.350000 
767 1 18.900000 56.984500 3.350000 
768 1 19.600000 55.772000 3.350000 
769 1 16.800000 58.196900 3.350000 
770 1 17.500000 59.409300 3.350000 
771 1 18.900000 59.409300 3.350000 
772 1 19.600000 58.196900 3.350000 
773 1 16.800000 60.621800 3.350000 
774 1 17.500000 61.834200 3.350000 
775 1 18.900000 61.834200 3.350000 
776 1 19.600000 60.621800 3.350000 
777 1 16.800000 63.046600 3.350000 
778 1 17.500000 64.259100 3.350000 
779 1 18.900000 64.259100 3.350000 
780 1 19.600000 63.046600 3.350000 
781 1 16.800000 65.471500 3.350000 
782 1 17.500000 66.684000 3.350000 
783 1 18.900000 66.684000 3.350000 
784 1 19.600000 65.471500 3.350000 
785 1 16.800000 67.896400 3.350000 
786 1 17.500000 69.108800 3.350000 
787 1 18.900000 69.108800 3.350000 
788 1 19.600000 67.896400 3.350000 
789 1 16.800000 70.321300 3.350000 
790 1 17.500000 71.533700 3.350000 
791 1 18.900000 71.533700 3.350000 
792 1 19.600000 70.321300 3.350000 
793 1 16.800000 72.746100 3.350000 
794 1 17.500000 73.958600 3.350000 
795 1 18.900000 73.958600 3.350000 
796 1 19.600000 72.746100 3.350000 
797 1 16.800000 75.171000 3.350000 
798 1 17.500000 76.383400 3.350000 
799 1 18.900000 76.383400 3.350000 
800 1 19.600000 75.171000 3.350000 
801 1 16.800000 77.595900 3.350000 
802 1 17.500000 78.808300 3.350000 
803 1 18.900000 78.808300 3.350000 
804 1 19.600000 77.595900 3.350000 
805 1 16.800000 80.020700 3.350000 
806 1 17.500000 81.233200 3.350000 
807 1 18.900000 81.233200 3.350000 
808 1 19.600000 80.020700 3.350000 
809 1 16.800000 82.445600 3.350000 
810 1 17.500000 83.658100 3.350000 
811 1 18.900000 83.658100 3.350000 
812 1 19.600000 82.445600 3.350000 
813 1 16.800000 84.870500 3.350000 
814 1 17.500000 86.082900 3.350000 
815 1 18.900000 86.082900 3.350000 
816 1 19.600000 84.870500 3.350000 
817 1 16.800000 87.295400 3.350000 
818 1 17.500000 88.507800 3.350000 
819 1 18.900000 88.507800 3.350000 
820 1 19.600000 87.295400 3.350000 
821 1 16.800000 89.720200 3.350000 
822 1 17.500000 90.932700 3.350000 
823 1 18.900000 90.932700 3.350000 
824 1 19.600000 89.720200 3.350000 
825 1 16.800000 92.145100 3.350000 
826 1 17.500000 93.357500 3.350000 
827 1 18.900000 93.357500 3.350000 
828 1 19.600000 92.145100 3.350000 
829 1 16.800000 94.570000 3.350000 
830 1 17.500000 95.782400 3.350000 
831 1 18.900000 95.782400 3.350000 
832 1 19.600000 94.570000 3.350000 
833 1 16.800000 96.994800 3.350000 
834 1 17.500000 98.207300 3.350000 
835 1 18.900000 98.207300 3.350000 
836 1 19.600000 96.994800 3.350000 
837 1 16.800000 99.419700 3.350000 
838 1 17.500000 100.632000 3.350000 
839 1 18.900000 100.632000 3.350000 
840 1 19.600000 99.419700 3.350000 
841 1 21.000000 0.000000 3.350000 
842 1 21.700000 1.212440 3.350000 
843 1 23.100000 1.212440 3.350000 
844 1 23.800000 0.000000 3.350000 
845 1 21.000000 2.424870 3.350000 